MODEL 1
REMARK VINA RESULT:    -4.768      0.000      0.000
REMARK INTER + INTRA:          -4.768
REMARK INTER:                  -4.768
REMARK INTRA:                   0.000
REMARK UNBOUND:                 0.000
REMARK  Name = 2519
REMARK  3 active torsions:
REMARK  status: ('A' for Active; 'I' for Inactive)
REMARK    1  A    between atoms: N_3  and  C_12
REMARK    2  A    between atoms: N_4  and  C_13
REMARK    3  A    between atoms: N_5  and  C_14
REMARK                            x       y       z     vdW  Elec       q    Type
REMARK                         _______ _______ _______ _____ _____    ______ ____
ROOT
ATOM      1  O   UNL     1       6.717  38.806   8.286  0.00  0.00    +0.000 OA
ATOM      2  O   UNL     1       8.544  36.577   4.584  0.00  0.00    +0.000 OA
ATOM      3  N   UNL     1       9.499  38.598   5.229  0.00  0.00    +0.000 N 
ATOM      4  N   UNL     1       8.812  40.884   7.792  0.00  0.00    +0.000 N 
ATOM      5  N   UNL     1       7.614  37.671   6.434  0.00  0.00    +0.000 N 
ATOM      6  N   UNL     1      10.298  40.742   6.136  0.00  0.00    +0.000 NA
ATOM      7  C   UNL     1       8.539  39.720   7.132  0.00  0.00    +0.000 A 
ATOM      8  C   UNL     1       9.462  39.658   6.125  0.00  0.00    +0.000 A 
ATOM      9  C   UNL     1       7.536  38.734   7.374  0.00  0.00    +0.000 A 
ATOM     10  C   UNL     1       8.558  37.545   5.353  0.00  0.00    +0.000 A 
ATOM     11  C   UNL     1       9.879  41.464   7.155  0.00  0.00    +0.000 A 
ATOM     12  C   UNL     1      10.500  38.568   4.168  0.00  0.00    +0.000 C 
ATOM     13  C   UNL     1       8.126  41.425   8.941  0.00  0.00    +0.000 C 
ATOM     14  C   UNL     1       6.638  36.597   6.579  0.00  0.00    +0.000 C 
ENDROOT
TORSDOF 0
ENDMDL
MODEL 2
REMARK VINA RESULT:    -4.740      1.654      3.736
REMARK INTER + INTRA:          -4.740
REMARK INTER:                  -4.740
REMARK INTRA:                   0.000
REMARK UNBOUND:                 0.000
REMARK  Name = 2519
REMARK  3 active torsions:
REMARK  status: ('A' for Active; 'I' for Inactive)
REMARK    1  A    between atoms: N_3  and  C_12
REMARK    2  A    between atoms: N_4  and  C_13
REMARK    3  A    between atoms: N_5  and  C_14
REMARK                            x       y       z     vdW  Elec       q    Type
REMARK                         _______ _______ _______ _____ _____    ______ ____
ROOT
ATOM      1  O   UNL     1       6.708  38.771   8.298  0.00  0.00    +0.000 OA
ATOM      2  O   UNL     1      10.386  40.628   6.053  0.00  0.00    +0.000 OA
ATOM      3  N   UNL     1       9.489  38.643   5.236  0.00  0.00    +0.000 N 
ATOM      4  N   UNL     1       6.826  36.602   6.241  0.00  0.00    +0.000 N 
ATOM      5  N   UNL     1       8.550  39.720   7.191  0.00  0.00    +0.000 N 
ATOM      6  N   UNL     1       8.337  36.562   4.602  0.00  0.00    +0.000 NA
ATOM      7  C   UNL     1       7.602  37.713   6.409  0.00  0.00    +0.000 A 
ATOM      8  C   UNL     1       8.517  37.665   5.394  0.00  0.00    +0.000 A 
ATOM      9  C   UNL     1       7.539  38.743   7.395  0.00  0.00    +0.000 A 
ATOM     10  C   UNL     1       9.543  39.728   6.146  0.00  0.00    +0.000 A 
ATOM     11  C   UNL     1       7.308  35.941   5.140  0.00  0.00    +0.000 A 
ATOM     12  C   UNL     1      10.447  38.556   4.140  0.00  0.00    +0.000 C 
ATOM     13  C   UNL     1       5.708  36.179   7.050  0.00  0.00    +0.000 C 
ATOM     14  C   UNL     1       8.588  40.829   8.138  0.00  0.00    +0.000 C 
ENDROOT
TORSDOF 0
ENDMDL
MODEL 3
REMARK VINA RESULT:    -4.661      1.644      4.164
REMARK INTER + INTRA:          -4.661
REMARK INTER:                  -4.661
REMARK INTRA:                   0.000
REMARK UNBOUND:                 0.000
REMARK  Name = 2519
REMARK  3 active torsions:
REMARK  status: ('A' for Active; 'I' for Inactive)
REMARK    1  A    between atoms: N_3  and  C_12
REMARK    2  A    between atoms: N_4  and  C_13
REMARK    3  A    between atoms: N_5  and  C_14
REMARK                            x       y       z     vdW  Elec       q    Type
REMARK                         _______ _______ _______ _____ _____    ______ ____
ROOT
ATOM      1  O   UNL     1       8.555  36.528   4.628  0.00  0.00    +0.000 OA
ATOM      2  O   UNL     1      10.423  40.643   5.891  0.00  0.00    +0.000 OA
ATOM      3  N   UNL     1       8.666  39.800   7.161  0.00  0.00    +0.000 N 
ATOM      4  N   UNL     1       6.722  36.894   6.963  0.00  0.00    +0.000 N 
ATOM      5  N   UNL     1       9.507  38.588   5.240  0.00  0.00    +0.000 N 
ATOM      6  N   UNL     1       6.807  38.668   8.310  0.00  0.00    +0.000 NA
ATOM      7  C   UNL     1       7.726  37.686   6.488  0.00  0.00    +0.000 A 
ATOM      8  C   UNL     1       7.758  38.763   7.329  0.00  0.00    +0.000 A 
ATOM      9  C   UNL     1       8.597  37.505   5.371  0.00  0.00    +0.000 A 
ATOM     10  C   UNL     1       9.592  39.749   6.089  0.00  0.00    +0.000 A 
ATOM     11  C   UNL     1       6.198  37.527   8.061  0.00  0.00    +0.000 A 
ATOM     12  C   UNL     1       8.668  40.932   8.080  0.00  0.00    +0.000 C 
ATOM     13  C   UNL     1       6.274  35.628   6.433  0.00  0.00    +0.000 C 
ATOM     14  C   UNL     1      10.453  38.517   4.132  0.00  0.00    +0.000 C 
ENDROOT
TORSDOF 0
ENDMDL
MODEL 4
REMARK VINA RESULT:    -4.587     27.291     28.790
REMARK INTER + INTRA:          -4.587
REMARK INTER:                  -4.587
REMARK INTRA:                   0.000
REMARK UNBOUND:                 0.000
REMARK  Name = 2519
REMARK  3 active torsions:
REMARK  status: ('A' for Active; 'I' for Inactive)
REMARK    1  A    between atoms: N_3  and  C_12
REMARK    2  A    between atoms: N_4  and  C_13
REMARK    3  A    between atoms: N_5  and  C_14
REMARK                            x       y       z     vdW  Elec       q    Type
REMARK                         _______ _______ _______ _____ _____    ______ ____
ROOT
ATOM      1  O   UNL     1      27.124  16.276  -1.812  0.00  0.00    +0.000 OA
ATOM      2  O   UNL     1      28.837  20.542  -2.749  0.00  0.00    +0.000 OA
ATOM      3  N   UNL     1      27.684  20.238  -0.753  0.00  0.00    +0.000 N 
ATOM      4  N   UNL     1      26.108  17.483   0.730  0.00  0.00    +0.000 N 
ATOM      5  N   UNL     1      27.991  18.403  -2.304  0.00  0.00    +0.000 N 
ATOM      6  N   UNL     1      26.426  19.621   1.272  0.00  0.00    +0.000 NA
ATOM      7  C   UNL     1      26.814  18.037  -0.299  0.00  0.00    +0.000 A 
ATOM      8  C   UNL     1      26.996  19.344   0.058  0.00  0.00    +0.000 A 
ATOM      9  C   UNL     1      27.295  17.453  -1.509  0.00  0.00    +0.000 A 
ATOM     10  C   UNL     1      28.217  19.791  -1.987  0.00  0.00    +0.000 A 
ATOM     11  C   UNL     1      25.898  18.476   1.651  0.00  0.00    +0.000 A 
ATOM     12  C   UNL     1      27.856  21.624  -0.336  0.00  0.00    +0.000 C 
ATOM     13  C   UNL     1      25.654  16.117   0.851  0.00  0.00    +0.000 C 
ATOM     14  C   UNL     1      28.533  17.925  -3.571  0.00  0.00    +0.000 C 
ENDROOT
TORSDOF 0
ENDMDL
MODEL 5
REMARK VINA RESULT:    -4.517     27.371     28.999
REMARK INTER + INTRA:          -4.517
REMARK INTER:                  -4.517
REMARK INTRA:                   0.000
REMARK UNBOUND:                 0.000
REMARK  Name = 2519
REMARK  3 active torsions:
REMARK  status: ('A' for Active; 'I' for Inactive)
REMARK    1  A    between atoms: N_3  and  C_12
REMARK    2  A    between atoms: N_4  and  C_13
REMARK    3  A    between atoms: N_5  and  C_14
REMARK                            x       y       z     vdW  Elec       q    Type
REMARK                         _______ _______ _______ _____ _____    ______ ____
ROOT
ATOM      1  O   UNL     1      26.577  19.761   1.194  0.00  0.00    +0.000 OA
ATOM      2  O   UNL     1      28.947  20.478  -2.792  0.00  0.00    +0.000 OA
ATOM      3  N   UNL     1      28.040  18.368  -2.419  0.00  0.00    +0.000 N 
ATOM      4  N   UNL     1      26.175  16.970   0.195  0.00  0.00    +0.000 N 
ATOM      5  N   UNL     1      27.769  20.144  -0.795  0.00  0.00    +0.000 N 
ATOM      6  N   UNL     1      26.975  16.250  -1.757  0.00  0.00    +0.000 NA
ATOM      7  C   UNL     1      26.829  18.030  -0.364  0.00  0.00    +0.000 A 
ATOM      8  C   UNL     1      27.308  17.563  -1.556  0.00  0.00    +0.000 A 
ATOM      9  C   UNL     1      27.017  19.359   0.120  0.00  0.00    +0.000 A 
ATOM     10  C   UNL     1      28.302  19.715  -2.064  0.00  0.00    +0.000 A 
ATOM     11  C   UNL     1      26.290  15.922  -0.681  0.00  0.00    +0.000 A 
ATOM     12  C   UNL     1      28.533  17.833  -3.683  0.00  0.00    +0.000 C 
ATOM     13  C   UNL     1      25.485  16.931   1.462  0.00  0.00    +0.000 C 
ATOM     14  C   UNL     1      28.027  21.528  -0.412  0.00  0.00    +0.000 C 
ENDROOT
TORSDOF 0
ENDMDL
MODEL 6
REMARK VINA RESULT:    -4.501     27.288     29.235
REMARK INTER + INTRA:          -4.501
REMARK INTER:                  -4.501
REMARK INTRA:                   0.000
REMARK UNBOUND:                 0.000
REMARK  Name = 2519
REMARK  3 active torsions:
REMARK  status: ('A' for Active; 'I' for Inactive)
REMARK    1  A    between atoms: N_3  and  C_12
REMARK    2  A    between atoms: N_4  and  C_13
REMARK    3  A    between atoms: N_5  and  C_14
REMARK                            x       y       z     vdW  Elec       q    Type
REMARK                         _______ _______ _______ _____ _____    ______ ____
ROOT
ATOM      1  O   UNL     1      27.154  16.332  -2.033  0.00  0.00    +0.000 OA
ATOM      2  O   UNL     1      26.511  19.729   1.140  0.00  0.00    +0.000 OA
ATOM      3  N   UNL     1      27.745  20.229  -0.768  0.00  0.00    +0.000 N 
ATOM      4  N   UNL     1      28.701  18.373  -3.580  0.00  0.00    +0.000 N 
ATOM      5  N   UNL     1      26.819  18.017  -0.429  0.00  0.00    +0.000 N 
ATOM      6  N   UNL     1      29.001  20.465  -2.871  0.00  0.00    +0.000 NA
ATOM      7  C   UNL     1      28.060  18.465  -2.378  0.00  0.00    +0.000 A 
ATOM      8  C   UNL     1      28.258  19.754  -1.967  0.00  0.00    +0.000 A 
ATOM      9  C   UNL     1      27.324  17.486  -1.646  0.00  0.00    +0.000 A 
ATOM     10  C   UNL     1      26.992  19.361   0.062  0.00  0.00    +0.000 A 
ATOM     11  C   UNL     1      29.253  19.602  -3.834  0.00  0.00    +0.000 A 
ATOM     12  C   UNL     1      27.979  21.611  -0.365  0.00  0.00    +0.000 C 
ATOM     13  C   UNL     1      28.797  17.217  -4.440  0.00  0.00    +0.000 C 
ATOM     14  C   UNL     1      26.045  17.109   0.410  0.00  0.00    +0.000 C 
ENDROOT
TORSDOF 0
ENDMDL
MODEL 7
REMARK VINA RESULT:    -4.435     27.342     29.459
REMARK INTER + INTRA:          -4.435
REMARK INTER:                  -4.435
REMARK INTRA:                   0.000
REMARK UNBOUND:                 0.000
REMARK  Name = 2519
REMARK  3 active torsions:
REMARK  status: ('A' for Active; 'I' for Inactive)
REMARK    1  A    between atoms: N_3  and  C_12
REMARK    2  A    between atoms: N_4  and  C_13
REMARK    3  A    between atoms: N_5  and  C_14
REMARK                            x       y       z     vdW  Elec       q    Type
REMARK                         _______ _______ _______ _____ _____    ______ ____
ROOT
ATOM      1  O   UNL     1      29.006  20.515  -2.728  0.00  0.00    +0.000 OA
ATOM      2  O   UNL     1      26.393  19.703   1.084  0.00  0.00    +0.000 OA
ATOM      3  N   UNL     1      26.729  17.951  -0.409  0.00  0.00    +0.000 N 
ATOM      4  N   UNL     1      28.483  17.653  -3.426  0.00  0.00    +0.000 N 
ATOM      5  N   UNL     1      27.701  20.133  -0.812  0.00  0.00    +0.000 N 
ATOM      6  N   UNL     1      27.252  16.297  -2.156  0.00  0.00    +0.000 NA
ATOM      7  C   UNL     1      28.073  18.398  -2.358  0.00  0.00    +0.000 A 
ATOM      8  C   UNL     1      27.323  17.545  -1.597  0.00  0.00    +0.000 A 
ATOM      9  C   UNL     1      28.327  19.764  -2.032  0.00  0.00    +0.000 A 
ATOM     10  C   UNL     1      26.899  19.286   0.035  0.00  0.00    +0.000 A 
ATOM     11  C   UNL     1      27.963  16.396  -3.259  0.00  0.00    +0.000 A 
ATOM     12  C   UNL     1      25.936  17.011   0.374  0.00  0.00    +0.000 C 
ATOM     13  C   UNL     1      29.306  18.081  -4.533  0.00  0.00    +0.000 C 
ATOM     14  C   UNL     1      27.888  21.511  -0.370  0.00  0.00    +0.000 C 
ENDROOT
TORSDOF 0
ENDMDL
MODEL 8
REMARK VINA RESULT:    -4.301     27.374     28.729
REMARK INTER + INTRA:          -4.301
REMARK INTER:                  -4.301
REMARK INTRA:                   0.000
REMARK UNBOUND:                 0.000
REMARK  Name = 2519
REMARK  3 active torsions:
REMARK  status: ('A' for Active; 'I' for Inactive)
REMARK    1  A    between atoms: N_3  and  C_12
REMARK    2  A    between atoms: N_4  and  C_13
REMARK    3  A    between atoms: N_5  and  C_14
REMARK                            x       y       z     vdW  Elec       q    Type
REMARK                         _______ _______ _______ _____ _____    ______ ____
ROOT
ATOM      1  O   UNL     1      26.203  19.741   1.399  0.00  0.00    +0.000 OA
ATOM      2  O   UNL     1      25.660  15.347  -0.155  0.00  0.00    +0.000 OA
ATOM      3  N   UNL     1      26.978  16.799  -1.407  0.00  0.00    +0.000 N 
ATOM      4  N   UNL     1      27.909  20.153  -1.024  0.00  0.00    +0.000 N 
ATOM      5  N   UNL     1      25.916  17.536   0.641  0.00  0.00    +0.000 N 
ATOM      6  N   UNL     1      28.308  18.548  -2.517  0.00  0.00    +0.000 NA
ATOM      7  C   UNL     1      27.237  19.049  -0.586  0.00  0.00    +0.000 A 
ATOM      8  C   UNL     1      27.499  18.082  -1.516  0.00  0.00    +0.000 A 
ATOM      9  C   UNL     1      26.424  18.860   0.572  0.00  0.00    +0.000 A 
ATOM     10  C   UNL     1      26.151  16.472  -0.304  0.00  0.00    +0.000 A 
ATOM     11  C   UNL     1      28.538  19.802  -2.190  0.00  0.00    +0.000 A 
ATOM     12  C   UNL     1      27.280  15.795  -2.421  0.00  0.00    +0.000 C 
ATOM     13  C   UNL     1      27.964  21.455  -0.400  0.00  0.00    +0.000 C 
ATOM     14  C   UNL     1      25.068  17.219   1.785  0.00  0.00    +0.000 C 
ENDROOT
TORSDOF 0
ENDMDL
MODEL 9
REMARK VINA RESULT:    -4.207      1.804      2.997
REMARK INTER + INTRA:          -4.207
REMARK INTER:                  -4.207
REMARK INTRA:                   0.000
REMARK UNBOUND:                 0.000
REMARK  Name = 2519
REMARK  3 active torsions:
REMARK  status: ('A' for Active; 'I' for Inactive)
REMARK    1  A    between atoms: N_3  and  C_12
REMARK    2  A    between atoms: N_4  and  C_13
REMARK    3  A    between atoms: N_5  and  C_14
REMARK                            x       y       z     vdW  Elec       q    Type
REMARK                         _______ _______ _______ _____ _____    ______ ____
ROOT
ATOM      1  O   UNL     1       7.941  40.237   7.958  0.00  0.00    +0.000 OA
ATOM      2  O   UNL     1       5.881  36.044   7.529  0.00  0.00    +0.000 OA
ATOM      3  N   UNL     1       7.531  36.617   5.994  0.00  0.00    +0.000 N 
ATOM      4  N   UNL     1       9.545  39.449   5.559  0.00  0.00    +0.000 N 
ATOM      5  N   UNL     1       6.894  38.142   7.764  0.00  0.00    +0.000 N 
ATOM      6  N   UNL     1       9.301  37.491   4.523  0.00  0.00    +0.000 NA
ATOM      7  C   UNL     1       8.571  38.777   6.238  0.00  0.00    +0.000 A 
ATOM      8  C   UNL     1       8.442  37.582   5.585  0.00  0.00    +0.000 A 
ATOM      9  C   UNL     1       7.809  39.160   7.383  0.00  0.00    +0.000 A 
ATOM     10  C   UNL     1       6.708  36.866   7.120  0.00  0.00    +0.000 A 
ATOM     11  C   UNL     1       9.953  38.634   4.534  0.00  0.00    +0.000 A 
ATOM     12  C   UNL     1       7.424  35.355   5.271  0.00  0.00    +0.000 C 
ATOM     13  C   UNL     1      10.065  40.766   5.841  0.00  0.00    +0.000 C 
ATOM     14  C   UNL     1       6.056  38.417   8.926  0.00  0.00    +0.000 C 
ENDROOT
TORSDOF 0
ENDMDL
