MODEL 1
REMARK VINA RESULT:    -4.693      0.000      0.000
REMARK INTER + INTRA:          -6.079
REMARK INTER:                  -5.653
REMARK INTRA:                  -0.426
REMARK UNBOUND:                -0.426
REMARK  Name = 2244
REMARK  5 active torsions:
REMARK  status: ('A' for Active; 'I' for Inactive)
REMARK    1  A    between atoms: O_1  and  C_5
REMARK    2  A    between atoms: O_1  and  C_12
REMARK    3  A    between atoms: O_2  and  C_11
REMARK    4  A    between atoms: C_6  and  C_11
REMARK    5  A    between atoms: C_12  and  C_13
REMARK                            x       y       z     vdW  Elec       q    Type
REMARK                         _______ _______ _______ _____ _____    ______ ____
ROOT
ATOM      1  C   UNL     1       8.005  37.920   4.035  0.00  0.00    +0.000 A 
ATOM      2  C   UNL     1       8.785  39.070   4.149  0.00  0.00    +0.000 A 
ATOM      3  C   UNL     1       6.695  38.009   3.567  0.00  0.00    +0.000 A 
ATOM      4  C   UNL     1       8.254  40.311   3.795  0.00  0.00    +0.000 A 
ATOM      5  C   UNL     1       6.163  39.249   3.213  0.00  0.00    +0.000 A 
ATOM      6  C   UNL     1       6.943  40.399   3.328  0.00  0.00    +0.000 A 
ENDROOT
BRANCH   2   8
ATOM      7  O   UNL     1      10.660  39.709   5.499  0.00  0.00    +0.000 OA
ATOM      8  C   UNL     1      10.158  38.999   4.634  0.00  0.00    +0.000 C 
BRANCH   8   9
ATOM      9  O   UNL     1      10.867  38.022   4.004  0.00  0.00    +0.000 OA
ATOM     10  H   UNL     1      10.282  37.328   3.631  0.00  0.00    +0.000 HD
ENDBRANCH   8   9
ENDBRANCH   2   8
BRANCH   1  11
ATOM     11  O   UNL     1       8.507  36.698   4.374  0.00  0.00    +0.000 OA
BRANCH  11  13
ATOM     12  O   UNL     1       7.083  34.910   4.876  0.00  0.00    +0.000 OA
ATOM     13  C   UNL     1       7.660  35.940   5.197  0.00  0.00    +0.000 C 
ATOM     14  C   UNL     1       7.555  36.579   6.550  0.00  0.00    +0.000 C 
ENDBRANCH  11  13
ENDBRANCH   1  11
TORSDOF 4
ENDMDL
MODEL 2
REMARK VINA RESULT:    -4.677     10.102     11.214
REMARK INTER + INTRA:          -6.060
REMARK INTER:                  -5.318
REMARK INTRA:                  -0.742
REMARK UNBOUND:                -0.426
REMARK  Name = 2244
REMARK  5 active torsions:
REMARK  status: ('A' for Active; 'I' for Inactive)
REMARK    1  A    between atoms: O_1  and  C_5
REMARK    2  A    between atoms: O_1  and  C_12
REMARK    3  A    between atoms: O_2  and  C_11
REMARK    4  A    between atoms: C_6  and  C_11
REMARK    5  A    between atoms: C_12  and  C_13
REMARK                            x       y       z     vdW  Elec       q    Type
REMARK                         _______ _______ _______ _____ _____    ______ ____
ROOT
ATOM      1  C   UNL     1      12.650  39.409  -5.515  0.00  0.00    +0.000 A 
ATOM      2  C   UNL     1      13.245  38.166  -5.727  0.00  0.00    +0.000 A 
ATOM      3  C   UNL     1      13.242  40.562  -6.030  0.00  0.00    +0.000 A 
ATOM      4  C   UNL     1      14.431  38.075  -6.454  0.00  0.00    +0.000 A 
ATOM      5  C   UNL     1      14.428  40.472  -6.758  0.00  0.00    +0.000 A 
ATOM      6  C   UNL     1      15.023  39.228  -6.969  0.00  0.00    +0.000 A 
ENDROOT
BRANCH   2   8
ATOM      7  O   UNL     1      12.145  36.039  -5.857  0.00  0.00    +0.000 OA
ATOM      8  C   UNL     1      12.642  36.949  -5.199  0.00  0.00    +0.000 C 
BRANCH   8   9
ATOM      9  O   UNL     1      12.681  36.912  -3.838  0.00  0.00    +0.000 OA
ATOM     10  H   UNL     1      11.810  36.675  -3.453  0.00  0.00    +0.000 HD
ENDBRANCH   8   9
ENDBRANCH   2   8
BRANCH   1  11
ATOM     11  O   UNL     1      11.489  39.518  -4.809  0.00  0.00    +0.000 OA
BRANCH  11  13
ATOM     12  O   UNL     1      12.402  39.774  -2.669  0.00  0.00    +0.000 OA
ATOM     13  C   UNL     1      11.638  40.132  -3.555  0.00  0.00    +0.000 C 
ATOM     14  C   UNL     1      10.714  41.308  -3.448  0.00  0.00    +0.000 C 
ENDBRANCH  11  13
ENDBRANCH   1  11
TORSDOF 4
ENDMDL
MODEL 3
REMARK VINA RESULT:    -4.666     26.239     27.519
REMARK INTER + INTRA:          -6.047
REMARK INTER:                  -5.631
REMARK INTRA:                  -0.416
REMARK UNBOUND:                -0.426
REMARK  Name = 2244
REMARK  5 active torsions:
REMARK  status: ('A' for Active; 'I' for Inactive)
REMARK    1  A    between atoms: O_1  and  C_5
REMARK    2  A    between atoms: O_1  and  C_12
REMARK    3  A    between atoms: O_2  and  C_11
REMARK    4  A    between atoms: C_6  and  C_11
REMARK    5  A    between atoms: C_12  and  C_13
REMARK                            x       y       z     vdW  Elec       q    Type
REMARK                         _______ _______ _______ _____ _____    ______ ____
ROOT
ATOM      1  C   UNL     1      28.009  19.594   1.171  0.00  0.00    +0.000 A 
ATOM      2  C   UNL     1      28.741  20.159   0.126  0.00  0.00    +0.000 A 
ATOM      3  C   UNL     1      28.642  18.763   2.095  0.00  0.00    +0.000 A 
ATOM      4  C   UNL     1      30.105  19.894   0.006  0.00  0.00    +0.000 A 
ATOM      5  C   UNL     1      30.006  18.498   1.976  0.00  0.00    +0.000 A 
ATOM      6  C   UNL     1      30.737  19.063   0.931  0.00  0.00    +0.000 A 
ENDROOT
BRANCH   2   8
ATOM      7  O   UNL     1      28.169  20.930  -2.071  0.00  0.00    +0.000 OA
ATOM      8  C   UNL     1      28.100  21.031  -0.849  0.00  0.00    +0.000 C 
BRANCH   8   9
ATOM      9  O   UNL     1      27.381  22.021  -0.250  0.00  0.00    +0.000 OA
ATOM     10  H   UNL     1      27.021  21.737   0.617  0.00  0.00    +0.000 HD
ENDBRANCH   8   9
ENDBRANCH   2   8
BRANCH   1  11
ATOM     11  O   UNL     1      26.676  19.843   1.306  0.00  0.00    +0.000 OA
BRANCH  11  13
ATOM     12  O   UNL     1      25.423  18.435   2.693  0.00  0.00    +0.000 OA
ATOM     13  C   UNL     1      25.909  18.706   1.603  0.00  0.00    +0.000 C 
ATOM     14  C   UNL     1      25.765  17.851   0.380  0.00  0.00    +0.000 C 
ENDBRANCH  11  13
ENDBRANCH   1  11
TORSDOF 4
ENDMDL
MODEL 4
REMARK VINA RESULT:    -4.486     26.133     27.575
REMARK INTER + INTRA:          -5.829
REMARK INTER:                  -5.175
REMARK INTRA:                  -0.654
REMARK UNBOUND:                -0.426
REMARK  Name = 2244
REMARK  5 active torsions:
REMARK  status: ('A' for Active; 'I' for Inactive)
REMARK    1  A    between atoms: O_1  and  C_5
REMARK    2  A    between atoms: O_1  and  C_12
REMARK    3  A    between atoms: O_2  and  C_11
REMARK    4  A    between atoms: C_6  and  C_11
REMARK    5  A    between atoms: C_12  and  C_13
REMARK                            x       y       z     vdW  Elec       q    Type
REMARK                         _______ _______ _______ _____ _____    ______ ____
ROOT
ATOM      1  C   UNL     1      27.512  18.408   0.173  0.00  0.00    +0.000 A 
ATOM      2  C   UNL     1      26.279  18.029   0.703  0.00  0.00    +0.000 A 
ATOM      3  C   UNL     1      28.026  17.745  -0.941  0.00  0.00    +0.000 A 
ATOM      4  C   UNL     1      25.559  16.987   0.118  0.00  0.00    +0.000 A 
ATOM      5  C   UNL     1      27.307  16.702  -1.526  0.00  0.00    +0.000 A 
ATOM      6  C   UNL     1      26.074  16.324  -0.995  0.00  0.00    +0.000 A 
ENDROOT
BRANCH   2   8
ATOM      7  O   UNL     1      25.743  18.305   3.023  0.00  0.00    +0.000 OA
ATOM      8  C   UNL     1      25.723  18.711   1.864  0.00  0.00    +0.000 C 
BRANCH   8   9
ATOM      9  O   UNL     1      25.150  19.900   1.529  0.00  0.00    +0.000 OA
ATOM     10  H   UNL     1      25.821  20.601   1.385  0.00  0.00    +0.000 HD
ENDBRANCH   8   9
ENDBRANCH   2   8
BRANCH   1  11
ATOM     11  O   UNL     1      28.230  19.426   0.728  0.00  0.00    +0.000 OA
BRANCH  11  13
ATOM     12  O   UNL     1      27.165  21.333  -0.112  0.00  0.00    +0.000 OA
ATOM     13  C   UNL     1      28.160  20.631   0.013  0.00  0.00    +0.000 C 
ATOM     14  C   UNL     1      29.497  20.948  -0.589  0.00  0.00    +0.000 C 
ENDBRANCH  11  13
ENDBRANCH   1  11
TORSDOF 4
ENDMDL
MODEL 5
REMARK VINA RESULT:    -4.449     26.340     27.611
REMARK INTER + INTRA:          -5.785
REMARK INTER:                  -5.102
REMARK INTRA:                  -0.683
REMARK UNBOUND:                -0.426
REMARK  Name = 2244
REMARK  5 active torsions:
REMARK  status: ('A' for Active; 'I' for Inactive)
REMARK    1  A    between atoms: O_1  and  C_5
REMARK    2  A    between atoms: O_1  and  C_12
REMARK    3  A    between atoms: O_2  and  C_11
REMARK    4  A    between atoms: C_6  and  C_11
REMARK    5  A    between atoms: C_12  and  C_13
REMARK                            x       y       z     vdW  Elec       q    Type
REMARK                         _______ _______ _______ _____ _____    ______ ____
ROOT
ATOM      1  C   UNL     1      28.513  19.116   0.965  0.00  0.00    +0.000 A 
ATOM      2  C   UNL     1      27.391  19.519   0.241  0.00  0.00    +0.000 A 
ATOM      3  C   UNL     1      29.763  19.662   0.673  0.00  0.00    +0.000 A 
ATOM      4  C   UNL     1      27.518  20.469  -0.773  0.00  0.00    +0.000 A 
ATOM      5  C   UNL     1      29.891  20.611  -0.341  0.00  0.00    +0.000 A 
ATOM      6  C   UNL     1      28.769  21.014  -1.063  0.00  0.00    +0.000 A 
ENDROOT
BRANCH   2   8
ATOM      7  O   UNL     1      25.522  18.052  -0.078  0.00  0.00    +0.000 OA
ATOM      8  C   UNL     1      26.075  18.963   0.531  0.00  0.00    +0.000 C 
BRANCH   8   9
ATOM      9  O   UNL     1      25.486  19.580   1.592  0.00  0.00    +0.000 OA
ATOM     10  H   UNL     1      24.517  19.672   1.470  0.00  0.00    +0.000 HD
ENDBRANCH   8   9
ENDBRANCH   2   8
BRANCH   1  11
ATOM     11  O   UNL     1      28.408  18.192   1.961  0.00  0.00    +0.000 OA
BRANCH  11  13
ATOM     12  O   UNL     1      27.764  19.624   3.696  0.00  0.00    +0.000 OA
ATOM     13  C   UNL     1      28.477  18.733   3.253  0.00  0.00    +0.000 C 
ATOM     14  C   UNL     1      29.567  18.060   4.033  0.00  0.00    +0.000 C 
ENDBRANCH  11  13
ENDBRANCH   1  11
TORSDOF 4
ENDMDL
MODEL 6
REMARK VINA RESULT:    -4.421     18.198     20.750
REMARK INTER + INTRA:          -5.751
REMARK INTER:                  -5.294
REMARK INTRA:                  -0.457
REMARK UNBOUND:                -0.426
REMARK  Name = 2244
REMARK  5 active torsions:
REMARK  status: ('A' for Active; 'I' for Inactive)
REMARK    1  A    between atoms: O_1  and  C_5
REMARK    2  A    between atoms: O_1  and  C_12
REMARK    3  A    between atoms: O_2  and  C_11
REMARK    4  A    between atoms: C_6  and  C_11
REMARK    5  A    between atoms: C_12  and  C_13
REMARK                            x       y       z     vdW  Elec       q    Type
REMARK                         _______ _______ _______ _____ _____    ______ ____
ROOT
ATOM      1  C   UNL     1       3.030  18.237   2.805  0.00  0.00    +0.000 A 
ATOM      2  C   UNL     1       4.061  17.312   2.970  0.00  0.00    +0.000 A 
ATOM      3  C   UNL     1       2.529  18.501   1.531  0.00  0.00    +0.000 A 
ATOM      4  C   UNL     1       4.590  16.651   1.862  0.00  0.00    +0.000 A 
ATOM      5  C   UNL     1       3.058  17.841   0.421  0.00  0.00    +0.000 A 
ATOM      6  C   UNL     1       4.089  16.917   0.588  0.00  0.00    +0.000 A 
ENDROOT
BRANCH   2   8
ATOM      7  O   UNL     1       4.304  16.060   5.000  0.00  0.00    +0.000 OA
ATOM      8  C   UNL     1       4.598  17.019   4.293  0.00  0.00    +0.000 C 
BRANCH   8   9
ATOM      9  O   UNL     1       5.501  17.957   4.692  0.00  0.00    +0.000 OA
ATOM     10  H   UNL     1       5.442  18.775   4.154  0.00  0.00    +0.000 HD
ENDBRANCH   8   9
ENDBRANCH   2   8
BRANCH   1  11
ATOM     11  O   UNL     1       2.499  18.891   3.876  0.00  0.00    +0.000 OA
BRANCH  11  13
ATOM     12  O   UNL     1       4.037  20.470   4.663  0.00  0.00    +0.000 OA
ATOM     13  C   UNL     1       3.007  20.185   4.065  0.00  0.00    +0.000 C 
ATOM     14  C   UNL     1       2.098  21.191   3.424  0.00  0.00    +0.000 C 
ENDBRANCH  11  13
ENDBRANCH   1  11
TORSDOF 4
ENDMDL
MODEL 7
REMARK VINA RESULT:    -4.397     26.122     27.585
REMARK INTER + INTRA:          -5.723
REMARK INTER:                  -4.980
REMARK INTRA:                  -0.742
REMARK UNBOUND:                -0.426
REMARK  Name = 2244
REMARK  5 active torsions:
REMARK  status: ('A' for Active; 'I' for Inactive)
REMARK    1  A    between atoms: O_1  and  C_5
REMARK    2  A    between atoms: O_1  and  C_12
REMARK    3  A    between atoms: O_2  and  C_11
REMARK    4  A    between atoms: C_6  and  C_11
REMARK    5  A    between atoms: C_12  and  C_13
REMARK                            x       y       z     vdW  Elec       q    Type
REMARK                         _______ _______ _______ _____ _____    ______ ____
ROOT
ATOM      1  C   UNL     1      28.041  18.899   1.150  0.00  0.00    +0.000 A 
ATOM      2  C   UNL     1      27.114  18.603   2.149  0.00  0.00    +0.000 A 
ATOM      3  C   UNL     1      29.400  18.957   1.455  0.00  0.00    +0.000 A 
ATOM      4  C   UNL     1      27.546  18.365   3.453  0.00  0.00    +0.000 A 
ATOM      5  C   UNL     1      29.833  18.719   2.759  0.00  0.00    +0.000 A 
ATOM      6  C   UNL     1      28.906  18.424   3.758  0.00  0.00    +0.000 A 
ENDROOT
BRANCH   2   8
ATOM      7  O   UNL     1      24.986  17.530   1.892  0.00  0.00    +0.000 OA
ATOM      8  C   UNL     1      25.689  18.535   1.851  0.00  0.00    +0.000 C 
BRANCH   8   9
ATOM      9  O   UNL     1      25.185  19.751   1.504  0.00  0.00    +0.000 OA
ATOM     10  H   UNL     1      25.876  20.342   1.137  0.00  0.00    +0.000 HD
ENDBRANCH   8   9
ENDBRANCH   2   8
BRANCH   1  11
ATOM     11  O   UNL     1      27.638  19.133  -0.131  0.00  0.00    +0.000 OA
BRANCH  11  13
ATOM     12  O   UNL     1      27.273  21.440   0.013  0.00  0.00    +0.000 OA
ATOM     13  C   UNL     1      27.773  20.469  -0.539  0.00  0.00    +0.000 C 
ATOM     14  C   UNL     1      28.629  20.545  -1.768  0.00  0.00    +0.000 C 
ENDBRANCH  11  13
ENDBRANCH   1  11
TORSDOF 4
ENDMDL
MODEL 8
REMARK VINA RESULT:    -4.396      1.749      4.262
REMARK INTER + INTRA:          -5.721
REMARK INTER:                  -5.089
REMARK INTRA:                  -0.632
REMARK UNBOUND:                -0.426
REMARK  Name = 2244
REMARK  5 active torsions:
REMARK  status: ('A' for Active; 'I' for Inactive)
REMARK    1  A    between atoms: O_1  and  C_5
REMARK    2  A    between atoms: O_1  and  C_12
REMARK    3  A    between atoms: O_2  and  C_11
REMARK    4  A    between atoms: C_6  and  C_11
REMARK    5  A    between atoms: C_12  and  C_13
REMARK                            x       y       z     vdW  Elec       q    Type
REMARK                         _______ _______ _______ _____ _____    ______ ____
ROOT
ATOM      1  C   UNL     1       7.676  38.022   5.722  0.00  0.00    +0.000 A 
ATOM      2  C   UNL     1       7.388  36.712   6.104  0.00  0.00    +0.000 A 
ATOM      3  C   UNL     1       7.499  39.067   6.628  0.00  0.00    +0.000 A 
ATOM      4  C   UNL     1       6.924  36.447   7.393  0.00  0.00    +0.000 A 
ATOM      5  C   UNL     1       7.034  38.803   7.916  0.00  0.00    +0.000 A 
ATOM      6  C   UNL     1       6.746  37.494   8.298  0.00  0.00    +0.000 A 
ENDROOT
BRANCH   2   8
ATOM      7  O   UNL     1       6.676  34.981   4.606  0.00  0.00    +0.000 OA
ATOM      8  C   UNL     1       7.568  35.605   5.174  0.00  0.00    +0.000 C 
BRANCH   8   9
ATOM      9  O   UNL     1       8.884  35.311   4.984  0.00  0.00    +0.000 OA
ATOM     10  H   UNL     1       9.023  34.750   4.192  0.00  0.00    +0.000 HD
ENDBRANCH   8   9
ENDBRANCH   2   8
BRANCH   1  11
ATOM     11  O   UNL     1       8.133  38.301   4.469  0.00  0.00    +0.000 OA
BRANCH  11  13
ATOM     12  O   UNL     1      10.398  37.720   4.560  0.00  0.00    +0.000 OA
ATOM     13  C   UNL     1       9.512  38.550   4.405  0.00  0.00    +0.000 C 
ATOM     14  C   UNL     1       9.757  40.002   4.117  0.00  0.00    +0.000 C 
ENDBRANCH  11  13
ENDBRANCH   1  11
TORSDOF 4
ENDMDL
MODEL 9
REMARK VINA RESULT:    -4.288     26.622     27.807
REMARK INTER + INTRA:          -5.591
REMARK INTER:                  -4.888
REMARK INTRA:                  -0.704
REMARK UNBOUND:                -0.426
REMARK  Name = 2244
REMARK  5 active torsions:
REMARK  status: ('A' for Active; 'I' for Inactive)
REMARK    1  A    between atoms: O_1  and  C_5
REMARK    2  A    between atoms: O_1  and  C_12
REMARK    3  A    between atoms: O_2  and  C_11
REMARK    4  A    between atoms: C_6  and  C_11
REMARK    5  A    between atoms: C_12  and  C_13
REMARK                            x       y       z     vdW  Elec       q    Type
REMARK                         _______ _______ _______ _____ _____    ______ ____
ROOT
ATOM      1  C   UNL     1      28.008  18.768  -0.985  0.00  0.00    +0.000 A 
ATOM      2  C   UNL     1      28.805  19.846  -1.371  0.00  0.00    +0.000 A 
ATOM      3  C   UNL     1      27.590  17.835  -1.934  0.00  0.00    +0.000 A 
ATOM      4  C   UNL     1      29.185  19.990  -2.706  0.00  0.00    +0.000 A 
ATOM      5  C   UNL     1      27.970  17.979  -3.269  0.00  0.00    +0.000 A 
ATOM      6  C   UNL     1      28.766  19.057  -3.654  0.00  0.00    +0.000 A 
ENDROOT
BRANCH   2   8
ATOM      7  O   UNL     1      30.395  20.953   0.040  0.00  0.00    +0.000 OA
ATOM      8  C   UNL     1      29.254  20.831  -0.396  0.00  0.00    +0.000 C 
BRANCH   8   9
ATOM      9  O   UNL     1      28.239  21.644   0.008  0.00  0.00    +0.000 OA
ATOM     10  H   UNL     1      28.054  21.548   0.967  0.00  0.00    +0.000 HD
ENDBRANCH   8   9
ENDBRANCH   2   8
BRANCH   1  11
ATOM     11  O   UNL     1      27.628  18.609   0.314  0.00  0.00    +0.000 OA
BRANCH  11  13
ATOM     12  O   UNL     1      25.796  20.063   0.405  0.00  0.00    +0.000 OA
ATOM     13  C   UNL     1      26.292  18.955   0.566  0.00  0.00    +0.000 C 
ATOM     14  C   UNL     1      25.539  17.760   1.070  0.00  0.00    +0.000 C 
ENDBRANCH  11  13
ENDBRANCH   1  11
TORSDOF 4
ENDMDL
