MODEL 1
REMARK VINA RESULT:    -6.150      0.000      0.000
REMARK INTER + INTRA:         -11.114
REMARK INTER:                  -9.386
REMARK INTRA:                  -1.727
REMARK UNBOUND:                -1.727
REMARK  Name = 969516
REMARK  12 active torsions:
REMARK  status: ('A' for Active; 'I' for Inactive)
REMARK    1  A    between atoms: O_1  and  C_12
REMARK    2  A    between atoms: O_1  and  C_26
REMARK    3  A    between atoms: O_2  and  C_13
REMARK    4  A    between atoms: O_2  and  C_27
REMARK    5  A    between atoms: O_3  and  C_18
REMARK    6  A    between atoms: O_4  and  C_19
REMARK    7  A    between atoms: C_7  and  C_16
REMARK    8  A    between atoms: C_8  and  C_17
REMARK    9  A    between atoms: C_9  and  C_20
REMARK   10  A    between atoms: C_9  and  C_21
REMARK   11  A    between atoms: C_20  and  C_24
REMARK   12  A    between atoms: C_21  and  C_25
REMARK                            x       y       z     vdW  Elec       q    Type
REMARK                         _______ _______ _______ _____ _____    ______ ____
ROOT
ATOM      1  C   UNL     1      27.651  19.185   0.508  0.00  0.00    +0.000 C 
ENDROOT
BRANCH   1   3
ATOM      2  O   UNL     1      25.616  19.365   1.786  0.00  0.00    +0.000 OA
ATOM      3  C   UNL     1      26.286  18.725   0.980  0.00  0.00    +0.000 C 
BRANCH   3   5
ATOM      4  C   UNL     1      26.493  16.834  -0.579  0.00  0.00    +0.000 C 
ATOM      5  C   UNL     1      25.779  17.462   0.365  0.00  0.00    +0.000 C 
BRANCH   4   6
ATOM      6  C   UNL     1      26.078  15.592  -1.255  0.00  0.00    +0.000 A 
ATOM      7  C   UNL     1      26.481  15.362  -2.561  0.00  0.00    +0.000 A 
ATOM      8  C   UNL     1      26.087  14.186  -3.199  0.00  0.00    +0.000 A 
ATOM      9  C   UNL     1      25.292  14.679  -0.571  0.00  0.00    +0.000 A 
ATOM     10  C   UNL     1      25.296  13.257  -2.525  0.00  0.00    +0.000 A 
ATOM     11  C   UNL     1      24.898  13.503  -1.211  0.00  0.00    +0.000 A 
BRANCH   8  12
ATOM     12  O   UNL     1      26.482  13.957  -4.483  0.00  0.00    +0.000 OA
ATOM     13  C   UNL     1      27.881  14.028  -4.754  0.00  0.00    +0.000 C 
ENDBRANCH   8  12
BRANCH  10  14
ATOM     14  O   UNL     1      24.906  12.105  -3.138  0.00  0.00    +0.000 OA
ATOM     15  H   UNL     1      25.671  11.506  -3.179  0.00  0.00    +0.000 HD
ENDBRANCH  10  14
ENDBRANCH   4   6
ENDBRANCH   3   5
ENDBRANCH   1   3
BRANCH   1  17
ATOM     16  O   UNL     1      27.431  21.578   0.314  0.00  0.00    +0.000 OA
ATOM     17  C   UNL     1      27.670  20.506  -0.236  0.00  0.00    +0.000 C 
BRANCH  17  19
ATOM     18  C   UNL     1      28.388  19.260  -2.233  0.00  0.00    +0.000 C 
ATOM     19  C   UNL     1      28.045  20.432  -1.679  0.00  0.00    +0.000 C 
BRANCH  18  20
ATOM     20  C   UNL     1      28.783  19.082  -3.640  0.00  0.00    +0.000 A 
ATOM     21  C   UNL     1      28.041  18.241  -4.453  0.00  0.00    +0.000 A 
ATOM     22  C   UNL     1      28.416  18.073  -5.786  0.00  0.00    +0.000 A 
ATOM     23  C   UNL     1      29.891  19.760  -4.124  0.00  0.00    +0.000 A 
ATOM     24  C   UNL     1      29.528  18.748  -6.288  0.00  0.00    +0.000 A 
ATOM     25  C   UNL     1      30.266  19.592  -5.457  0.00  0.00    +0.000 A 
BRANCH  22  26
ATOM     26  O   UNL     1      27.687  17.248  -6.588  0.00  0.00    +0.000 OA
ATOM     27  C   UNL     1      26.307  17.084  -6.268  0.00  0.00    +0.000 C 
ENDBRANCH  22  26
BRANCH  24  28
ATOM     28  O   UNL     1      29.904  18.594  -7.588  0.00  0.00    +0.000 OA
ATOM     29  H   UNL     1      30.613  19.228  -7.790  0.00  0.00    +0.000 HD
ENDBRANCH  24  28
ENDBRANCH  18  20
ENDBRANCH  17  19
ENDBRANCH   1  17
TORSDOF 10
ENDMDL
MODEL 2
REMARK VINA RESULT:    -5.951      0.512      5.663
REMARK INTER + INTRA:         -10.809
REMARK INTER:                  -9.178
REMARK INTRA:                  -1.631
REMARK UNBOUND:                -1.727
REMARK  Name = 969516
REMARK  12 active torsions:
REMARK  status: ('A' for Active; 'I' for Inactive)
REMARK    1  A    between atoms: O_1  and  C_12
REMARK    2  A    between atoms: O_1  and  C_26
REMARK    3  A    between atoms: O_2  and  C_13
REMARK    4  A    between atoms: O_2  and  C_27
REMARK    5  A    between atoms: O_3  and  C_18
REMARK    6  A    between atoms: O_4  and  C_19
REMARK    7  A    between atoms: C_7  and  C_16
REMARK    8  A    between atoms: C_8  and  C_17
REMARK    9  A    between atoms: C_9  and  C_20
REMARK   10  A    between atoms: C_9  and  C_21
REMARK   11  A    between atoms: C_20  and  C_24
REMARK   12  A    between atoms: C_21  and  C_25
REMARK                            x       y       z     vdW  Elec       q    Type
REMARK                         _______ _______ _______ _____ _____    ______ ____
ROOT
ATOM      1  C   UNL     1      28.442  19.473   0.566  0.00  0.00    +0.000 C 
ENDROOT
BRANCH   1   3
ATOM      2  O   UNL     1      27.412  21.609   0.138  0.00  0.00    +0.000 OA
ATOM      3  C   UNL     1      28.018  20.638  -0.306  0.00  0.00    +0.000 C 
BRANCH   3   5
ATOM      4  C   UNL     1      28.457  19.373  -2.369  0.00  0.00    +0.000 C 
ATOM      5  C   UNL     1      28.425  20.556  -1.741  0.00  0.00    +0.000 C 
BRANCH   4   6
ATOM      6  C   UNL     1      28.855  19.183  -3.776  0.00  0.00    +0.000 A 
ATOM      7  C   UNL     1      28.127  18.316  -4.576  0.00  0.00    +0.000 A 
ATOM      8  C   UNL     1      28.504  18.137  -5.907  0.00  0.00    +0.000 A 
ATOM      9  C   UNL     1      29.949  19.874  -4.270  0.00  0.00    +0.000 A 
ATOM     10  C   UNL     1      29.604  18.825  -6.419  0.00  0.00    +0.000 A 
ATOM     11  C   UNL     1      30.326  19.694  -5.601  0.00  0.00    +0.000 A 
BRANCH   8  12
ATOM     12  O   UNL     1      27.791  17.286  -6.696  0.00  0.00    +0.000 OA
ATOM     13  C   UNL     1      26.401  17.146  -6.409  0.00  0.00    +0.000 C 
ENDBRANCH   8  12
BRANCH  10  14
ATOM     14  O   UNL     1      29.981  18.658  -7.717  0.00  0.00    +0.000 OA
ATOM     15  H   UNL     1      30.879  18.286  -7.730  0.00  0.00    +0.000 HD
ENDBRANCH  10  14
ENDBRANCH   4   6
ENDBRANCH   3   5
ENDBRANCH   1   3
BRANCH   1  17
ATOM     16  O   UNL     1      26.705  19.241   2.222  0.00  0.00    +0.000 OA
ATOM     17  C   UNL     1      27.314  18.749   1.276  0.00  0.00    +0.000 C 
BRANCH  17  19
ATOM     18  C   UNL     1      26.532  17.290  -0.545  0.00  0.00    +0.000 C 
ATOM     19  C   UNL     1      26.953  17.410   0.722  0.00  0.00    +0.000 C 
BRANCH  18  20
ATOM     20  C   UNL     1      26.143  16.020  -1.181  0.00  0.00    +0.000 A 
ATOM     21  C   UNL     1      26.460  15.801  -2.511  0.00  0.00    +0.000 A 
ATOM     22  C   UNL     1      26.091  14.598  -3.113  0.00  0.00    +0.000 A 
ATOM     23  C   UNL     1      25.466  15.068  -0.435  0.00  0.00    +0.000 A 
ATOM     24  C   UNL     1      25.409  13.631  -2.376  0.00  0.00    +0.000 A 
ATOM     25  C   UNL     1      25.096  13.865  -1.037  0.00  0.00    +0.000 A 
BRANCH  22  26
ATOM     26  O   UNL     1      26.403  14.380  -4.421  0.00  0.00    +0.000 OA
ATOM     27  C   UNL     1      27.778  14.166  -4.733  0.00  0.00    +0.000 C 
ENDBRANCH  22  26
BRANCH  24  28
ATOM     28  O   UNL     1      25.044  12.451  -2.952  0.00  0.00    +0.000 OA
ATOM     29  H   UNL     1      24.683  11.863  -2.267  0.00  0.00    +0.000 HD
ENDBRANCH  24  28
ENDBRANCH  18  20
ENDBRANCH  17  19
ENDBRANCH   1  17
TORSDOF 10
ENDMDL
MODEL 3
REMARK VINA RESULT:    -5.816      0.842      6.120
REMARK INTER + INTRA:         -10.604
REMARK INTER:                  -9.190
REMARK INTRA:                  -1.413
REMARK UNBOUND:                -1.727
REMARK  Name = 969516
REMARK  12 active torsions:
REMARK  status: ('A' for Active; 'I' for Inactive)
REMARK    1  A    between atoms: O_1  and  C_12
REMARK    2  A    between atoms: O_1  and  C_26
REMARK    3  A    between atoms: O_2  and  C_13
REMARK    4  A    between atoms: O_2  and  C_27
REMARK    5  A    between atoms: O_3  and  C_18
REMARK    6  A    between atoms: O_4  and  C_19
REMARK    7  A    between atoms: C_7  and  C_16
REMARK    8  A    between atoms: C_8  and  C_17
REMARK    9  A    between atoms: C_9  and  C_20
REMARK   10  A    between atoms: C_9  and  C_21
REMARK   11  A    between atoms: C_20  and  C_24
REMARK   12  A    between atoms: C_21  and  C_25
REMARK                            x       y       z     vdW  Elec       q    Type
REMARK                         _______ _______ _______ _____ _____    ______ ____
ROOT
ATOM      1  C   UNL     1      27.731  19.193   0.456  0.00  0.00    +0.000 C 
ENDROOT
BRANCH   1   3
ATOM      2  O   UNL     1      27.688  21.594   0.259  0.00  0.00    +0.000 OA
ATOM      3  C   UNL     1      27.921  20.510  -0.269  0.00  0.00    +0.000 C 
BRANCH   3   5
ATOM      4  C   UNL     1      28.145  19.365  -2.434  0.00  0.00    +0.000 C 
ATOM      5  C   UNL     1      28.457  20.412  -1.659  0.00  0.00    +0.000 C 
BRANCH   4   6
ATOM      6  C   UNL     1      28.630  19.169  -3.812  0.00  0.00    +0.000 A 
ATOM      7  C   UNL     1      28.036  18.205  -4.610  0.00  0.00    +0.000 A 
ATOM      8  C   UNL     1      28.496  18.020  -5.914  0.00  0.00    +0.000 A 
ATOM      9  C   UNL     1      29.672  19.952  -4.281  0.00  0.00    +0.000 A 
ATOM     10  C   UNL     1      29.544  18.800  -6.401  0.00  0.00    +0.000 A 
ATOM     11  C   UNL     1      30.132  19.766  -5.586  0.00  0.00    +0.000 A 
BRANCH   8  12
ATOM     12  O   UNL     1      27.913  17.073  -6.701  0.00  0.00    +0.000 OA
ATOM     13  C   UNL     1      26.629  16.598  -6.303  0.00  0.00    +0.000 C 
ENDBRANCH   8  12
BRANCH  10  14
ATOM     14  O   UNL     1      30.000  18.629  -7.673  0.00  0.00    +0.000 OA
ATOM     15  H   UNL     1      30.875  19.048  -7.743  0.00  0.00    +0.000 HD
ENDBRANCH  10  14
ENDBRANCH   4   6
ENDBRANCH   3   5
ENDBRANCH   1   3
BRANCH   1  17
ATOM     16  O   UNL     1      25.628  19.638   1.548  0.00  0.00    +0.000 OA
ATOM     17  C   UNL     1      26.305  18.875   0.863  0.00  0.00    +0.000 C 
BRANCH  17  19
ATOM     18  C   UNL     1      26.395  16.918  -0.625  0.00  0.00    +0.000 C 
ATOM     19  C   UNL     1      25.752  17.591   0.340  0.00  0.00    +0.000 C 
BRANCH  18  20
ATOM     20  C   UNL     1      25.929  15.651  -1.215  0.00  0.00    +0.000 A 
ATOM     21  C   UNL     1      25.333  14.702  -0.402  0.00  0.00    +0.000 A 
ATOM     22  C   UNL     1      24.892  13.502  -0.961  0.00  0.00    +0.000 A 
ATOM     23  C   UNL     1      26.098  15.434  -2.574  0.00  0.00    +0.000 A 
ATOM     24  C   UNL     1      25.054  13.269  -2.327  0.00  0.00    +0.000 A 
ATOM     25  C   UNL     1      25.657  14.235  -3.133  0.00  0.00    +0.000 A 
BRANCH  22  26
ATOM     26  O   UNL     1      24.304  12.567  -0.164  0.00  0.00    +0.000 OA
ATOM     27  C   UNL     1      24.935  12.290   1.085  0.00  0.00    +0.000 C 
ENDBRANCH  22  26
BRANCH  24  28
ATOM     28  O   UNL     1      24.627  12.103  -2.886  0.00  0.00    +0.000 OA
ATOM     29  H   UNL     1      23.693  11.964  -2.654  0.00  0.00    +0.000 HD
ENDBRANCH  24  28
ENDBRANCH  18  20
ENDBRANCH  17  19
ENDBRANCH   1  17
TORSDOF 10
ENDMDL
MODEL 4
REMARK VINA RESULT:    -5.697      1.578      5.761
REMARK INTER + INTRA:         -10.422
REMARK INTER:                  -8.946
REMARK INTRA:                  -1.476
REMARK UNBOUND:                -1.727
REMARK  Name = 969516
REMARK  12 active torsions:
REMARK  status: ('A' for Active; 'I' for Inactive)
REMARK    1  A    between atoms: O_1  and  C_12
REMARK    2  A    between atoms: O_1  and  C_26
REMARK    3  A    between atoms: O_2  and  C_13
REMARK    4  A    between atoms: O_2  and  C_27
REMARK    5  A    between atoms: O_3  and  C_18
REMARK    6  A    between atoms: O_4  and  C_19
REMARK    7  A    between atoms: C_7  and  C_16
REMARK    8  A    between atoms: C_8  and  C_17
REMARK    9  A    between atoms: C_9  and  C_20
REMARK   10  A    between atoms: C_9  and  C_21
REMARK   11  A    between atoms: C_20  and  C_24
REMARK   12  A    between atoms: C_21  and  C_25
REMARK                            x       y       z     vdW  Elec       q    Type
REMARK                         _______ _______ _______ _____ _____    ______ ____
ROOT
ATOM      1  C   UNL     1      25.888  12.409  -1.100  0.00  0.00    +0.000 C 
ENDROOT
BRANCH   1   3
ATOM      2  O   UNL     1      23.663  13.018  -0.403  0.00  0.00    +0.000 OA
ATOM      3  C   UNL     1      24.869  13.237  -0.342  0.00  0.00    +0.000 C 
BRANCH   3   5
ATOM      4  C   UNL     1      25.695  15.526   0.017  0.00  0.00    +0.000 C 
ATOM      5  C   UNL     1      25.429  14.316   0.526  0.00  0.00    +0.000 C 
BRANCH   4   6
ATOM      6  C   UNL     1      26.257  16.652   0.785  0.00  0.00    +0.000 A 
ATOM      7  C   UNL     1      26.099  17.944   0.309  0.00  0.00    +0.000 A 
ATOM      8  C   UNL     1      26.632  19.009   1.036  0.00  0.00    +0.000 A 
ATOM      9  C   UNL     1      26.934  16.396   1.966  0.00  0.00    +0.000 A 
ATOM     10  C   UNL     1      27.316  18.767   2.226  0.00  0.00    +0.000 A 
ATOM     11  C   UNL     1      27.467  17.461   2.692  0.00  0.00    +0.000 A 
BRANCH   8  12
ATOM     12  O   UNL     1      26.478  20.280   0.571  0.00  0.00    +0.000 OA
ATOM     13  C   UNL     1      27.397  20.722  -0.427  0.00  0.00    +0.000 C 
ENDBRANCH   8  12
BRANCH  10  14
ATOM     14  O   UNL     1      27.840  19.799   2.945  0.00  0.00    +0.000 OA
ATOM     15  H   UNL     1      27.106  20.302   3.338  0.00  0.00    +0.000 HD
ENDBRANCH  10  14
ENDBRANCH   4   6
ENDBRANCH   3   5
ENDBRANCH   1   3
BRANCH   1  17
ATOM     16  O   UNL     1      24.980  11.624  -3.191  0.00  0.00    +0.000 OA
ATOM     17  C   UNL     1      25.729  12.404  -2.608  0.00  0.00    +0.000 C 
BRANCH  17  19
ATOM     18  C   UNL     1      26.017  14.681  -3.494  0.00  0.00    +0.000 C 
ATOM     19  C   UNL     1      26.508  13.442  -3.345  0.00  0.00    +0.000 C 
BRANCH  18  20
ATOM     20  C   UNL     1      26.700  15.771  -4.212  0.00  0.00    +0.000 A 
ATOM     21  C   UNL     1      26.721  15.765  -5.597  0.00  0.00    +0.000 A 
ATOM     22  C   UNL     1      27.369  16.797  -6.276  0.00  0.00    +0.000 A 
ATOM     23  C   UNL     1      27.310  16.783  -3.486  0.00  0.00    +0.000 A 
ATOM     24  C   UNL     1      27.987  17.822  -5.560  0.00  0.00    +0.000 A 
ATOM     25  C   UNL     1      27.958  17.815  -4.165  0.00  0.00    +0.000 A 
BRANCH  22  26
ATOM     26  O   UNL     1      27.389  16.794  -7.638  0.00  0.00    +0.000 OA
ATOM     27  C   UNL     1      28.130  15.753  -8.273  0.00  0.00    +0.000 C 
ENDBRANCH  22  26
BRANCH  24  28
ATOM     28  O   UNL     1      28.621  18.837  -6.211  0.00  0.00    +0.000 OA
ATOM     29  H   UNL     1      28.115  19.066  -7.009  0.00  0.00    +0.000 HD
ENDBRANCH  24  28
ENDBRANCH  18  20
ENDBRANCH  17  19
ENDBRANCH   1  17
TORSDOF 10
ENDMDL
MODEL 5
REMARK VINA RESULT:    -5.684      1.561      6.764
REMARK INTER + INTRA:         -10.402
REMARK INTER:                  -8.977
REMARK INTRA:                  -1.425
REMARK UNBOUND:                -1.727
REMARK  Name = 969516
REMARK  12 active torsions:
REMARK  status: ('A' for Active; 'I' for Inactive)
REMARK    1  A    between atoms: O_1  and  C_12
REMARK    2  A    between atoms: O_1  and  C_26
REMARK    3  A    between atoms: O_2  and  C_13
REMARK    4  A    between atoms: O_2  and  C_27
REMARK    5  A    between atoms: O_3  and  C_18
REMARK    6  A    between atoms: O_4  and  C_19
REMARK    7  A    between atoms: C_7  and  C_16
REMARK    8  A    between atoms: C_8  and  C_17
REMARK    9  A    between atoms: C_9  and  C_20
REMARK   10  A    between atoms: C_9  and  C_21
REMARK   11  A    between atoms: C_20  and  C_24
REMARK   12  A    between atoms: C_21  and  C_25
REMARK                            x       y       z     vdW  Elec       q    Type
REMARK                         _______ _______ _______ _____ _____    ______ ____
ROOT
ATOM      1  C   UNL     1      25.831  12.475  -1.221  0.00  0.00    +0.000 C 
ENDROOT
BRANCH   1   3
ATOM      2  O   UNL     1      25.005  11.591  -3.305  0.00  0.00    +0.000 OA
ATOM      3  C   UNL     1      25.721  12.406  -2.731  0.00  0.00    +0.000 C 
BRANCH   3   5
ATOM      4  C   UNL     1      26.054  14.686  -3.592  0.00  0.00    +0.000 C 
ATOM      5  C   UNL     1      26.506  13.429  -3.485  0.00  0.00    +0.000 C 
BRANCH   4   6
ATOM      6  C   UNL     1      26.746  15.765  -4.321  0.00  0.00    +0.000 A 
ATOM      7  C   UNL     1      26.789  15.728  -5.705  0.00  0.00    +0.000 A 
ATOM      8  C   UNL     1      27.444  16.749  -6.394  0.00  0.00    +0.000 A 
ATOM      9  C   UNL     1      27.340  16.792  -3.607  0.00  0.00    +0.000 A 
ATOM     10  C   UNL     1      28.047  17.790  -5.690  0.00  0.00    +0.000 A 
ATOM     11  C   UNL     1      27.996  17.813  -4.297  0.00  0.00    +0.000 A 
BRANCH   8  12
ATOM     12  O   UNL     1      27.487  16.717  -7.756  0.00  0.00    +0.000 OA
ATOM     13  C   UNL     1      28.027  15.543  -8.360  0.00  0.00    +0.000 C 
ENDBRANCH   8  12
BRANCH  10  14
ATOM     14  O   UNL     1      28.689  18.793  -6.353  0.00  0.00    +0.000 OA
ATOM     15  H   UNL     1      28.545  19.623  -5.866  0.00  0.00    +0.000 HD
ENDBRANCH  10  14
ENDBRANCH   4   6
ENDBRANCH   3   5
ENDBRANCH   1   3
BRANCH   1  17
ATOM     16  O   UNL     1      23.563  13.068  -0.660  0.00  0.00    +0.000 OA
ATOM     17  C   UNL     1      24.762  13.299  -0.529  0.00  0.00    +0.000 C 
BRANCH  17  19
ATOM     18  C   UNL     1      25.790  15.503  -0.154  0.00  0.00    +0.000 C 
ATOM     19  C   UNL     1      25.260  14.386   0.365  0.00  0.00    +0.000 C 
BRANCH  18  20
ATOM     20  C   UNL     1      26.317  16.626   0.639  0.00  0.00    +0.000 A 
ATOM     21  C   UNL     1      26.112  17.923   0.199  0.00  0.00    +0.000 A 
ATOM     22  C   UNL     1      26.612  18.987   0.950  0.00  0.00    +0.000 A 
ATOM     23  C   UNL     1      27.010  16.363   1.811  0.00  0.00    +0.000 A 
ATOM     24  C   UNL     1      27.311  18.738   2.131  0.00  0.00    +0.000 A 
ATOM     25  C   UNL     1      27.510  17.427   2.562  0.00  0.00    +0.000 A 
BRANCH  22  26
ATOM     26  O   UNL     1      26.411  20.264   0.520  0.00  0.00    +0.000 OA
ATOM     27  C   UNL     1      27.377  20.806  -0.378  0.00  0.00    +0.000 C 
ENDBRANCH  22  26
BRANCH  24  28
ATOM     28  O   UNL     1      27.803  19.768   2.875  0.00  0.00    +0.000 OA
ATOM     29  H   UNL     1      27.263  20.561   2.715  0.00  0.00    +0.000 HD
ENDBRANCH  24  28
ENDBRANCH  18  20
ENDBRANCH  17  19
ENDBRANCH   1  17
TORSDOF 10
ENDMDL
MODEL 6
REMARK VINA RESULT:    -5.669      1.455      7.060
REMARK INTER + INTRA:         -10.380
REMARK INTER:                  -8.708
REMARK INTRA:                  -1.672
REMARK UNBOUND:                -1.727
REMARK  Name = 969516
REMARK  12 active torsions:
REMARK  status: ('A' for Active; 'I' for Inactive)
REMARK    1  A    between atoms: O_1  and  C_12
REMARK    2  A    between atoms: O_1  and  C_26
REMARK    3  A    between atoms: O_2  and  C_13
REMARK    4  A    between atoms: O_2  and  C_27
REMARK    5  A    between atoms: O_3  and  C_18
REMARK    6  A    between atoms: O_4  and  C_19
REMARK    7  A    between atoms: C_7  and  C_16
REMARK    8  A    between atoms: C_8  and  C_17
REMARK    9  A    between atoms: C_9  and  C_20
REMARK   10  A    between atoms: C_9  and  C_21
REMARK   11  A    between atoms: C_20  and  C_24
REMARK   12  A    between atoms: C_21  and  C_25
REMARK                            x       y       z     vdW  Elec       q    Type
REMARK                         _______ _______ _______ _____ _____    ______ ____
ROOT
ATOM      1  C   UNL     1      24.823  14.880  -2.908  0.00  0.00    +0.000 C 
ENDROOT
BRANCH   1   3
ATOM      2  O   UNL     1      26.552  13.549  -3.929  0.00  0.00    +0.000 OA
ATOM      3  C   UNL     1      26.079  14.664  -3.727  0.00  0.00    +0.000 C 
BRANCH   3   5
ATOM      4  C   UNL     1      27.620  16.579  -3.643  0.00  0.00    +0.000 C 
ATOM      5  C   UNL     1      26.687  15.893  -4.318  0.00  0.00    +0.000 C 
BRANCH   4   6
ATOM      6  C   UNL     1      28.272  17.808  -4.132  0.00  0.00    +0.000 A 
ATOM      7  C   UNL     1      28.706  17.869  -5.447  0.00  0.00    +0.000 A 
ATOM      8  C   UNL     1      29.323  19.031  -5.908  0.00  0.00    +0.000 A 
ATOM      9  C   UNL     1      28.439  18.876  -3.267  0.00  0.00    +0.000 A 
ATOM     10  C   UNL     1      29.499  20.116  -5.049  0.00  0.00    +0.000 A 
ATOM     11  C   UNL     1      29.057  20.039  -3.728  0.00  0.00    +0.000 A 
BRANCH   8  12
ATOM     12  O   UNL     1      29.751  19.095  -7.200  0.00  0.00    +0.000 OA
ATOM     13  C   UNL     1      30.233  17.886  -7.784  0.00  0.00    +0.000 C 
ENDBRANCH   8  12
BRANCH  10  14
ATOM     14  O   UNL     1      30.100  21.257  -5.489  0.00  0.00    +0.000 OA
ATOM     15  H   UNL     1      29.430  21.961  -5.524  0.00  0.00    +0.000 HD
ENDBRANCH  10  14
ENDBRANCH   4   6
ENDBRANCH   3   5
ENDBRANCH   1   3
BRANCH   1  17
ATOM     16  O   UNL     1      24.372  13.211  -1.227  0.00  0.00    +0.000 OA
ATOM     17  C   UNL     1      24.855  14.306  -1.504  0.00  0.00    +0.000 C 
BRANCH  17  19
ATOM     18  C   UNL     1      25.496  16.475  -0.536  0.00  0.00    +0.000 C 
ATOM     19  C   UNL     1      25.554  15.137  -0.480  0.00  0.00    +0.000 C 
BRANCH  18  20
ATOM     20  C   UNL     1      26.158  17.382   0.417  0.00  0.00    +0.000 A 
ATOM     21  C   UNL     1      26.957  18.407  -0.063  0.00  0.00    +0.000 A 
ATOM     22  C   UNL     1      27.584  19.266   0.840  0.00  0.00    +0.000 A 
ATOM     23  C   UNL     1      25.969  17.192   1.777  0.00  0.00    +0.000 A 
ATOM     24  C   UNL     1      27.404  19.087   2.211  0.00  0.00    +0.000 A 
ATOM     25  C   UNL     1      26.597  18.050   2.680  0.00  0.00    +0.000 A 
BRANCH  22  26
ATOM     26  O   UNL     1      28.369  20.275   0.370  0.00  0.00    +0.000 OA
ATOM     27  C   UNL     1      27.732  21.278  -0.419  0.00  0.00    +0.000 C 
ENDBRANCH  22  26
BRANCH  24  28
ATOM     28  O   UNL     1      28.009  19.920   3.104  0.00  0.00    +0.000 OA
ATOM     29  H   UNL     1      27.600  19.798   3.977  0.00  0.00    +0.000 HD
ENDBRANCH  24  28
ENDBRANCH  18  20
ENDBRANCH  17  19
ENDBRANCH   1  17
TORSDOF 10
ENDMDL
MODEL 7
REMARK VINA RESULT:    -5.541     28.177     30.971
REMARK INTER + INTRA:         -10.184
REMARK INTER:                  -8.451
REMARK INTRA:                  -1.733
REMARK UNBOUND:                -1.727
REMARK  Name = 969516
REMARK  12 active torsions:
REMARK  status: ('A' for Active; 'I' for Inactive)
REMARK    1  A    between atoms: O_1  and  C_12
REMARK    2  A    between atoms: O_1  and  C_26
REMARK    3  A    between atoms: O_2  and  C_13
REMARK    4  A    between atoms: O_2  and  C_27
REMARK    5  A    between atoms: O_3  and  C_18
REMARK    6  A    between atoms: O_4  and  C_19
REMARK    7  A    between atoms: C_7  and  C_16
REMARK    8  A    between atoms: C_8  and  C_17
REMARK    9  A    between atoms: C_9  and  C_20
REMARK   10  A    between atoms: C_9  and  C_21
REMARK   11  A    between atoms: C_20  and  C_24
REMARK   12  A    between atoms: C_21  and  C_25
REMARK                            x       y       z     vdW  Elec       q    Type
REMARK                         _______ _______ _______ _____ _____    ______ ____
ROOT
ATOM      1  C   UNL     1       4.459  34.721   5.079  0.00  0.00    +0.000 C 
ENDROOT
BRANCH   1   3
ATOM      2  O   UNL     1       5.089  33.229   6.864  0.00  0.00    +0.000 OA
ATOM      3  C   UNL     1       4.753  34.359   6.522  0.00  0.00    +0.000 C 
BRANCH   3   5
ATOM      4  C   UNL     1       5.756  35.976   8.080  0.00  0.00    +0.000 C 
ATOM      5  C   UNL     1       4.653  35.480   7.504  0.00  0.00    +0.000 C 
BRANCH   4   6
ATOM      6  C   UNL     1       5.765  37.071   9.067  0.00  0.00    +0.000 A 
ATOM      7  C   UNL     1       6.955  37.414   9.689  0.00  0.00    +0.000 A 
ATOM      8  C   UNL     1       6.962  38.450  10.624  0.00  0.00    +0.000 A 
ATOM      9  C   UNL     1       4.583  37.733   9.355  0.00  0.00    +0.000 A 
ATOM     10  C   UNL     1       5.780  39.126  10.924  0.00  0.00    +0.000 A 
ATOM     11  C   UNL     1       4.590  38.769  10.290  0.00  0.00    +0.000 A 
BRANCH   8  12
ATOM     12  O   UNL     1       8.130  38.790  11.237  0.00  0.00    +0.000 OA
ATOM     13  C   UNL     1       8.867  39.874  10.673  0.00  0.00    +0.000 C 
ENDBRANCH   8  12
BRANCH  10  14
ATOM     14  O   UNL     1       5.775  40.140  11.835  0.00  0.00    +0.000 OA
ATOM     15  H   UNL     1       4.971  40.669  11.699  0.00  0.00    +0.000 HD
ENDBRANCH  10  14
ENDBRANCH   4   6
ENDBRANCH   3   5
ENDBRANCH   1   3
BRANCH   1  17
ATOM     16  O   UNL     1       6.024  34.046   3.374  0.00  0.00    +0.000 OA
ATOM     17  C   UNL     1       5.677  34.894   4.192  0.00  0.00    +0.000 C 
BRANCH  17  19
ATOM     18  C   UNL     1       7.556  36.242   5.034  0.00  0.00    +0.000 C 
ATOM     19  C   UNL     1       6.409  36.186   4.341  0.00  0.00    +0.000 C 
BRANCH  18  20
ATOM     20  C   UNL     1       8.347  37.466   5.247  0.00  0.00    +0.000 A 
ATOM     21  C   UNL     1       7.897  38.416   6.149  0.00  0.00    +0.000 A 
ATOM     22  C   UNL     1       8.646  39.576   6.350  0.00  0.00    +0.000 A 
ATOM     23  C   UNL     1       9.526  37.643   4.539  0.00  0.00    +0.000 A 
ATOM     24  C   UNL     1       9.835  39.769   5.646  0.00  0.00    +0.000 A 
ATOM     25  C   UNL     1      10.274  38.803   4.740  0.00  0.00    +0.000 A 
BRANCH  22  26
ATOM     26  O   UNL     1       8.208  40.512   7.237  0.00  0.00    +0.000 OA
ATOM     27  C   UNL     1       7.125  41.343   6.821  0.00  0.00    +0.000 C 
ENDBRANCH  22  26
BRANCH  24  28
ATOM     28  O   UNL     1      10.577  40.896   5.834  0.00  0.00    +0.000 OA
ATOM     29  H   UNL     1       9.989  41.618   6.115  0.00  0.00    +0.000 HD
ENDBRANCH  24  28
ENDBRANCH  18  20
ENDBRANCH  17  19
ENDBRANCH   1  17
TORSDOF 10
ENDMDL
MODEL 8
REMARK VINA RESULT:    -5.510     28.422     31.426
REMARK INTER + INTRA:         -10.137
REMARK INTER:                  -8.579
REMARK INTRA:                  -1.558
REMARK UNBOUND:                -1.727
REMARK  Name = 969516
REMARK  12 active torsions:
REMARK  status: ('A' for Active; 'I' for Inactive)
REMARK    1  A    between atoms: O_1  and  C_12
REMARK    2  A    between atoms: O_1  and  C_26
REMARK    3  A    between atoms: O_2  and  C_13
REMARK    4  A    between atoms: O_2  and  C_27
REMARK    5  A    between atoms: O_3  and  C_18
REMARK    6  A    between atoms: O_4  and  C_19
REMARK    7  A    between atoms: C_7  and  C_16
REMARK    8  A    between atoms: C_8  and  C_17
REMARK    9  A    between atoms: C_9  and  C_20
REMARK   10  A    between atoms: C_9  and  C_21
REMARK   11  A    between atoms: C_20  and  C_24
REMARK   12  A    between atoms: C_21  and  C_25
REMARK                            x       y       z     vdW  Elec       q    Type
REMARK                         _______ _______ _______ _____ _____    ______ ____
ROOT
ATOM      1  C   UNL     1       8.484  38.887   4.899  0.00  0.00    +0.000 C 
ENDROOT
BRANCH   1   3
ATOM      2  O   UNL     1       9.864  36.913   4.823  0.00  0.00    +0.000 OA
ATOM      3  C   UNL     1       8.748  37.397   4.988  0.00  0.00    +0.000 C 
BRANCH   3   5
ATOM      4  C   UNL     1       7.249  36.332   6.622  0.00  0.00    +0.000 C 
ATOM      5  C   UNL     1       7.569  36.550   5.340  0.00  0.00    +0.000 C 
BRANCH   4   6
ATOM      6  C   UNL     1       6.115  35.505   7.073  0.00  0.00    +0.000 A 
ATOM      7  C   UNL     1       5.379  35.907   8.177  0.00  0.00    +0.000 A 
ATOM      8  C   UNL     1       4.306  35.124   8.603  0.00  0.00    +0.000 A 
ATOM      9  C   UNL     1       5.809  34.342   6.386  0.00  0.00    +0.000 A 
ATOM     10  C   UNL     1       3.986  33.950   7.922  0.00  0.00    +0.000 A 
ATOM     11  C   UNL     1       4.736  33.559   6.814  0.00  0.00    +0.000 A 
BRANCH   8  12
ATOM     12  O   UNL     1       3.580  35.516   9.687  0.00  0.00    +0.000 OA
ATOM     13  C   UNL     1       4.086  35.158  10.971  0.00  0.00    +0.000 C 
ENDBRANCH   8  12
BRANCH  10  14
ATOM     14  O   UNL     1       2.940  33.178   8.329  0.00  0.00    +0.000 OA
ATOM     15  H   UNL     1       2.116  33.587   8.013  0.00  0.00    +0.000 HD
ENDBRANCH  10  14
ENDBRANCH   4   6
ENDBRANCH   3   5
ENDBRANCH   1   3
BRANCH   1  17
ATOM     16  O   UNL     1      10.492  40.220   4.956  0.00  0.00    +0.000 OA
ATOM     17  C   UNL     1       9.522  39.771   5.563  0.00  0.00    +0.000 C 
BRANCH  17  19
ATOM     18  C   UNL     1       8.215  39.583   7.638  0.00  0.00    +0.000 C 
ATOM     19  C   UNL     1       9.270  40.104   6.996  0.00  0.00    +0.000 C 
BRANCH  18  20
ATOM     20  C   UNL     1       7.873  39.856   9.045  0.00  0.00    +0.000 A 
ATOM     21  C   UNL     1       6.684  39.368   9.562  0.00  0.00    +0.000 A 
ATOM     22  C   UNL     1       6.360  39.628  10.893  0.00  0.00    +0.000 A 
ATOM     23  C   UNL     1       8.747  40.598   9.823  0.00  0.00    +0.000 A 
ATOM     24  C   UNL     1       7.229  40.372  11.690  0.00  0.00    +0.000 A 
ATOM     25  C   UNL     1       8.423  40.858  11.155  0.00  0.00    +0.000 A 
BRANCH  22  26
ATOM     26  O   UNL     1       5.192  39.148  11.405  0.00  0.00    +0.000 OA
ATOM     27  C   UNL     1       4.144  38.869  10.478  0.00  0.00    +0.000 C 
ENDBRANCH  22  26
BRANCH  24  28
ATOM     28  O   UNL     1       6.926  40.631  12.992  0.00  0.00    +0.000 OA
ATOM     29  H   UNL     1       6.641  39.806  13.421  0.00  0.00    +0.000 HD
ENDBRANCH  24  28
ENDBRANCH  18  20
ENDBRANCH  17  19
ENDBRANCH   1  17
TORSDOF 10
ENDMDL
MODEL 9
REMARK VINA RESULT:    -5.503     28.479     31.896
REMARK INTER + INTRA:         -10.125
REMARK INTER:                  -8.353
REMARK INTRA:                  -1.773
REMARK UNBOUND:                -1.727
REMARK  Name = 969516
REMARK  12 active torsions:
REMARK  status: ('A' for Active; 'I' for Inactive)
REMARK    1  A    between atoms: O_1  and  C_12
REMARK    2  A    between atoms: O_1  and  C_26
REMARK    3  A    between atoms: O_2  and  C_13
REMARK    4  A    between atoms: O_2  and  C_27
REMARK    5  A    between atoms: O_3  and  C_18
REMARK    6  A    between atoms: O_4  and  C_19
REMARK    7  A    between atoms: C_7  and  C_16
REMARK    8  A    between atoms: C_8  and  C_17
REMARK    9  A    between atoms: C_9  and  C_20
REMARK   10  A    between atoms: C_9  and  C_21
REMARK   11  A    between atoms: C_20  and  C_24
REMARK   12  A    between atoms: C_21  and  C_25
REMARK                            x       y       z     vdW  Elec       q    Type
REMARK                         _______ _______ _______ _____ _____    ______ ____
ROOT
ATOM      1  C   UNL     1       8.499  38.936   4.914  0.00  0.00    +0.000 C 
ENDROOT
BRANCH   1   3
ATOM      2  O   UNL     1      10.423  40.383   5.022  0.00  0.00    +0.000 OA
ATOM      3  C   UNL     1       9.511  39.818   5.619  0.00  0.00    +0.000 C 
BRANCH   3   5
ATOM      4  C   UNL     1       8.067  39.967   7.604  0.00  0.00    +0.000 C 
ATOM      5  C   UNL     1       9.302  39.998   7.087  0.00  0.00    +0.000 C 
BRANCH   4   6
ATOM      6  C   UNL     1       7.754  40.145   9.034  0.00  0.00    +0.000 A 
ATOM      7  C   UNL     1       6.604  39.571   9.552  0.00  0.00    +0.000 A 
ATOM      8  C   UNL     1       6.308  39.740  10.905  0.00  0.00    +0.000 A 
ATOM      9  C   UNL     1       8.614  40.883   9.829  0.00  0.00    +0.000 A 
ATOM     10  C   UNL     1       7.164  40.481  11.719  0.00  0.00    +0.000 A 
ATOM     11  C   UNL     1       8.317  41.052  11.182  0.00  0.00    +0.000 A 
BRANCH   8  12
ATOM     12  O   UNL     1       5.178  39.178  11.419  0.00  0.00    +0.000 OA
ATOM     13  C   UNL     1       4.023  39.161  10.582  0.00  0.00    +0.000 C 
ENDBRANCH   8  12
BRANCH  10  14
ATOM     14  O   UNL     1       6.885  40.652  13.042  0.00  0.00    +0.000 OA
ATOM     15  H   UNL     1       6.002  40.286  13.218  0.00  0.00    +0.000 HD
ENDBRANCH  10  14
ENDBRANCH   4   6
ENDBRANCH   3   5
ENDBRANCH   1   3
BRANCH   1  17
ATOM     16  O   UNL     1       9.857  36.946   4.825  0.00  0.00    +0.000 OA
ATOM     17  C   UNL     1       8.752  37.445   5.022  0.00  0.00    +0.000 C 
BRANCH  17  19
ATOM     18  C   UNL     1       7.201  36.558   6.713  0.00  0.00    +0.000 C 
ATOM     19  C   UNL     1       7.578  36.616   5.428  0.00  0.00    +0.000 C 
BRANCH  18  20
ATOM     20  C   UNL     1       6.067  35.764   7.217  0.00  0.00    +0.000 A 
ATOM     21  C   UNL     1       5.485  36.104   8.427  0.00  0.00    +0.000 A 
ATOM     22  C   UNL     1       4.412  35.351   8.905  0.00  0.00    +0.000 A 
ATOM     23  C   UNL     1       5.606  34.691   6.471  0.00  0.00    +0.000 A 
ATOM     24  C   UNL     1       3.936  34.269   8.166  0.00  0.00    +0.000 A 
ATOM     25  C   UNL     1       4.533  33.938   6.949  0.00  0.00    +0.000 A 
BRANCH  22  26
ATOM     26  O   UNL     1       3.837  35.684  10.094  0.00  0.00    +0.000 OA
ATOM     27  C   UNL     1       4.654  35.590  11.259  0.00  0.00    +0.000 C 
ENDBRANCH  22  26
BRANCH  24  28
ATOM     28  O   UNL     1       2.888  33.527   8.620  0.00  0.00    +0.000 OA
ATOM     29  H   UNL     1       2.058  33.937   8.324  0.00  0.00    +0.000 HD
ENDBRANCH  24  28
ENDBRANCH  18  20
ENDBRANCH  17  19
ENDBRANCH   1  17
TORSDOF 10
ENDMDL
