MODEL 1
REMARK VINA RESULT:    -7.132      0.000      0.000
REMARK INTER + INTRA:         -11.749
REMARK INTER:                 -10.885
REMARK INTRA:                  -0.864
REMARK UNBOUND:                -0.864
REMARK  Name = 969516
REMARK  12 active torsions:
REMARK  status: ('A' for Active; 'I' for Inactive)
REMARK    1  A    between atoms: O_1  and  C_12
REMARK    2  A    between atoms: O_1  and  C_26
REMARK    3  A    between atoms: O_2  and  C_13
REMARK    4  A    between atoms: O_2  and  C_27
REMARK    5  A    between atoms: O_3  and  C_18
REMARK    6  A    between atoms: O_4  and  C_19
REMARK    7  A    between atoms: C_7  and  C_16
REMARK    8  A    between atoms: C_8  and  C_17
REMARK    9  A    between atoms: C_9  and  C_20
REMARK   10  A    between atoms: C_9  and  C_21
REMARK   11  A    between atoms: C_20  and  C_24
REMARK   12  A    between atoms: C_21  and  C_25
REMARK                            x       y       z     vdW  Elec       q    Type
REMARK                         _______ _______ _______ _____ _____    ______ ____
ROOT
ATOM      1  C   UNL     1       8.087  10.217  28.678  0.00  0.00    +0.000 C 
ENDROOT
BRANCH   1   3
ATOM      2  O   UNL     1      10.156   9.698  27.557  0.00  0.00    +0.000 OA
ATOM      3  C   UNL     1       9.254   9.326  28.302  0.00  0.00    +0.000 C 
BRANCH   3   5
ATOM      4  C   UNL     1       8.403   7.676  29.916  0.00  0.00    +0.000 C 
ATOM      5  C   UNL     1       9.266   7.973  28.935  0.00  0.00    +0.000 C 
BRANCH   4   6
ATOM      6  C   UNL     1       8.341   6.378  30.612  0.00  0.00    +0.000 A 
ATOM      7  C   UNL     1       9.512   5.670  30.832  0.00  0.00    +0.000 A 
ATOM      8  C   UNL     1       9.453   4.441  31.490  0.00  0.00    +0.000 A 
ATOM      9  C   UNL     1       7.114   5.892  31.031  0.00  0.00    +0.000 A 
ATOM     10  C   UNL     1       8.225   3.938  31.918  0.00  0.00    +0.000 A 
ATOM     11  C   UNL     1       7.055   4.663  31.689  0.00  0.00    +0.000 A 
BRANCH   8  12
ATOM     12  O   UNL     1      10.602   3.742  31.707  0.00  0.00    +0.000 OA
ATOM     13  C   UNL     1      11.757   4.150  30.978  0.00  0.00    +0.000 C 
ENDBRANCH   8  12
BRANCH  10  14
ATOM     14  O   UNL     1       8.155   2.740  32.562  0.00  0.00    +0.000 OA
ATOM     15  H   UNL     1       7.519   2.175  32.091  0.00  0.00    +0.000 HD
ENDBRANCH  10  14
ENDBRANCH   4   6
ENDBRANCH   3   5
ENDBRANCH   1   3
BRANCH   1  17
ATOM     16  O   UNL     1       8.608  12.560  28.455  0.00  0.00    +0.000 OA
ATOM     17  C   UNL     1       8.460  11.592  29.197  0.00  0.00    +0.000 C 
BRANCH  17  19
ATOM     18  C   UNL     1       8.845  12.900  31.245  0.00  0.00    +0.000 C 
ATOM     19  C   UNL     1       8.593  11.711  30.679  0.00  0.00    +0.000 C 
BRANCH  18  20
ATOM     20  C   UNL     1       9.004  13.122  32.692  0.00  0.00    +0.000 A 
ATOM     21  C   UNL     1       8.273  12.351  33.581  0.00  0.00    +0.000 A 
ATOM     22  C   UNL     1       8.423  12.562  34.952  0.00  0.00    +0.000 A 
ATOM     23  C   UNL     1       9.882  14.099  33.136  0.00  0.00    +0.000 A 
ATOM     24  C   UNL     1       9.302  13.541  35.414  0.00  0.00    +0.000 A 
ATOM     25  C   UNL     1      10.032  14.310  34.507  0.00  0.00    +0.000 A 
BRANCH  22  26
ATOM     26  O   UNL     1       7.707  11.805  35.829  0.00  0.00    +0.000 OA
ATOM     27  C   UNL     1       8.326  10.616  36.315  0.00  0.00    +0.000 C 
ENDBRANCH  22  26
BRANCH  24  28
ATOM     28  O   UNL     1       9.460  13.756  36.750  0.00  0.00    +0.000 OA
ATOM     29  H   UNL     1       8.583  13.822  37.166  0.00  0.00    +0.000 HD
ENDBRANCH  24  28
ENDBRANCH  18  20
ENDBRANCH  17  19
ENDBRANCH   1  17
TORSDOF 10
ENDMDL
MODEL 2
REMARK VINA RESULT:    -7.095      4.308      7.605
REMARK INTER + INTRA:         -11.691
REMARK INTER:                 -11.217
REMARK INTRA:                  -0.475
REMARK UNBOUND:                -0.864
REMARK  Name = 969516
REMARK  12 active torsions:
REMARK  status: ('A' for Active; 'I' for Inactive)
REMARK    1  A    between atoms: O_1  and  C_12
REMARK    2  A    between atoms: O_1  and  C_26
REMARK    3  A    between atoms: O_2  and  C_13
REMARK    4  A    between atoms: O_2  and  C_27
REMARK    5  A    between atoms: O_3  and  C_18
REMARK    6  A    between atoms: O_4  and  C_19
REMARK    7  A    between atoms: C_7  and  C_16
REMARK    8  A    between atoms: C_8  and  C_17
REMARK    9  A    between atoms: C_9  and  C_20
REMARK   10  A    between atoms: C_9  and  C_21
REMARK   11  A    between atoms: C_20  and  C_24
REMARK   12  A    between atoms: C_21  and  C_25
REMARK                            x       y       z     vdW  Elec       q    Type
REMARK                         _______ _______ _______ _____ _____    ______ ____
ROOT
ATOM      1  C   UNL     1       9.238   9.543  27.639  0.00  0.00    +0.000 C 
ENDROOT
BRANCH   1   3
ATOM      2  O   UNL     1       8.102  10.345  29.606  0.00  0.00    +0.000 OA
ATOM      3  C   UNL     1       8.702   9.429  29.052  0.00  0.00    +0.000 C 
BRANCH   3   5
ATOM      4  C   UNL     1       7.858   7.394  30.146  0.00  0.00    +0.000 C 
ATOM      5  C   UNL     1       8.908   8.109  29.719  0.00  0.00    +0.000 C 
BRANCH   4   6
ATOM      6  C   UNL     1       7.954   6.089  30.824  0.00  0.00    +0.000 A 
ATOM      7  C   UNL     1       9.196   5.492  30.975  0.00  0.00    +0.000 A 
ATOM      8  C   UNL     1       9.286   4.257  31.616  0.00  0.00    +0.000 A 
ATOM      9  C   UNL     1       6.801   5.484  31.296  0.00  0.00    +0.000 A 
ATOM     10  C   UNL     1       8.135   3.635  32.096  0.00  0.00    +0.000 A 
ATOM     11  C   UNL     1       6.892   4.248  31.937  0.00  0.00    +0.000 A 
BRANCH   8  12
ATOM     12  O   UNL     1      10.506   3.667  31.765  0.00  0.00    +0.000 OA
ATOM     13  C   UNL     1      11.592   4.227  31.030  0.00  0.00    +0.000 C 
ENDBRANCH   8  12
BRANCH  10  14
ATOM     14  O   UNL     1       8.211   2.429  32.725  0.00  0.00    +0.000 OA
ATOM     15  H   UNL     1       7.426   1.908  32.484  0.00  0.00    +0.000 HD
ENDBRANCH  10  14
ENDBRANCH   4   6
ENDBRANCH   3   5
ENDBRANCH   1   3
BRANCH   1  17
ATOM     16  O   UNL     1      10.459  11.622  27.627  0.00  0.00    +0.000 OA
ATOM     17  C   UNL     1       9.536  10.953  27.169  0.00  0.00    +0.000 C 
BRANCH  17  19
ATOM     18  C   UNL     1       8.888  12.676  25.536  0.00  0.00    +0.000 C 
ATOM     19  C   UNL     1       8.662  11.469  26.073  0.00  0.00    +0.000 C 
BRANCH  18  20
ATOM     20  C   UNL     1       8.080  13.279  24.462  0.00  0.00    +0.000 A 
ATOM     21  C   UNL     1       8.463  13.101  23.143  0.00  0.00    +0.000 A 
ATOM     22  C   UNL     1       7.699  13.673  22.126  0.00  0.00    +0.000 A 
ATOM     23  C   UNL     1       6.952  14.014  24.793  0.00  0.00    +0.000 A 
ATOM     24  C   UNL     1       6.561  14.415  22.443  0.00  0.00    +0.000 A 
ATOM     25  C   UNL     1       6.188  14.586  23.776  0.00  0.00    +0.000 A 
BRANCH  22  26
ATOM     26  O   UNL     1       8.072  13.498  20.828  0.00  0.00    +0.000 OA
ATOM     27  C   UNL     1       8.742  14.586  20.193  0.00  0.00    +0.000 C 
ENDBRANCH  22  26
BRANCH  24  28
ATOM     28  O   UNL     1       5.804  14.977  21.459  0.00  0.00    +0.000 OA
ATOM     29  H   UNL     1       6.290  14.927  20.618  0.00  0.00    +0.000 HD
ENDBRANCH  24  28
ENDBRANCH  18  20
ENDBRANCH  17  19
ENDBRANCH   1  17
TORSDOF 10
ENDMDL
MODEL 3
REMARK VINA RESULT:    -6.988      3.509      8.554
REMARK INTER + INTRA:         -11.528
REMARK INTER:                 -10.730
REMARK INTRA:                  -0.799
REMARK UNBOUND:                -0.864
REMARK  Name = 969516
REMARK  12 active torsions:
REMARK  status: ('A' for Active; 'I' for Inactive)
REMARK    1  A    between atoms: O_1  and  C_12
REMARK    2  A    between atoms: O_1  and  C_26
REMARK    3  A    between atoms: O_2  and  C_13
REMARK    4  A    between atoms: O_2  and  C_27
REMARK    5  A    between atoms: O_3  and  C_18
REMARK    6  A    between atoms: O_4  and  C_19
REMARK    7  A    between atoms: C_7  and  C_16
REMARK    8  A    between atoms: C_8  and  C_17
REMARK    9  A    between atoms: C_9  and  C_20
REMARK   10  A    between atoms: C_9  and  C_21
REMARK   11  A    between atoms: C_20  and  C_24
REMARK   12  A    between atoms: C_21  and  C_25
REMARK                            x       y       z     vdW  Elec       q    Type
REMARK                         _______ _______ _______ _____ _____    ______ ____
ROOT
ATOM      1  C   UNL     1       7.374   9.982  29.041  0.00  0.00    +0.000 C 
ENDROOT
BRANCH   1   3
ATOM      2  O   UNL     1       6.466  12.213  29.085  0.00  0.00    +0.000 OA
ATOM      3  C   UNL     1       7.102  11.360  28.473  0.00  0.00    +0.000 C 
BRANCH   3   5
ATOM      4  C   UNL     1       8.934  11.212  26.839  0.00  0.00    +0.000 C 
ATOM      5  C   UNL     1       7.698  11.637  27.132  0.00  0.00    +0.000 C 
BRANCH   4   6
ATOM      6  C   UNL     1       9.616  11.443  25.553  0.00  0.00    +0.000 A 
ATOM      7  C   UNL     1      10.994  11.309  25.481  0.00  0.00    +0.000 A 
ATOM      8  C   UNL     1      11.638  11.527  24.264  0.00  0.00    +0.000 A 
ATOM      9  C   UNL     1       8.866  11.790  24.441  0.00  0.00    +0.000 A 
ATOM     10  C   UNL     1      10.897  11.878  23.136  0.00  0.00    +0.000 A 
ATOM     11  C   UNL     1       9.512  12.010  23.224  0.00  0.00    +0.000 A 
BRANCH   8  12
ATOM     12  O   UNL     1      12.992  11.396  24.190  0.00  0.00    +0.000 OA
ATOM     13  C   UNL     1      13.777  12.503  24.630  0.00  0.00    +0.000 C 
ENDBRANCH   8  12
BRANCH  10  14
ATOM     14  O   UNL     1      11.516  12.093  21.941  0.00  0.00    +0.000 OA
ATOM     15  H   UNL     1      12.472  11.968  22.064  0.00  0.00    +0.000 HD
ENDBRANCH  10  14
ENDBRANCH   4   6
ENDBRANCH   3   5
ENDBRANCH   1   3
BRANCH   1  17
ATOM     16  O   UNL     1       9.081  10.909  30.469  0.00  0.00    +0.000 OA
ATOM     17  C   UNL     1       8.428   9.925  30.130  0.00  0.00    +0.000 C 
BRANCH  17  19
ATOM     18  C   UNL     1       8.022   7.504  30.293  0.00  0.00    +0.000 C 
ATOM     19  C   UNL     1       8.595   8.604  30.803  0.00  0.00    +0.000 C 
BRANCH  18  20
ATOM     20  C   UNL     1       8.116   6.159  30.885  0.00  0.00    +0.000 A 
ATOM     21  C   UNL     1       9.362   5.578  31.055  0.00  0.00    +0.000 A 
ATOM     22  C   UNL     1       9.451   4.303  31.615  0.00  0.00    +0.000 A 
ATOM     23  C   UNL     1       6.956   5.500  31.259  0.00  0.00    +0.000 A 
ATOM     24  C   UNL     1       8.293   3.628  31.997  0.00  0.00    +0.000 A 
ATOM     25  C   UNL     1       7.045   4.225  31.819  0.00  0.00    +0.000 A 
BRANCH  22  26
ATOM     26  O   UNL     1      10.675   3.730  31.786  0.00  0.00    +0.000 OA
ATOM     27  C   UNL     1      11.726   4.178  30.930  0.00  0.00    +0.000 C 
ENDBRANCH  22  26
BRANCH  24  28
ATOM     28  O   UNL     1       8.366   2.383  32.547  0.00  0.00    +0.000 OA
ATOM     29  H   UNL     1       8.825   1.790  31.928  0.00  0.00    +0.000 HD
ENDBRANCH  24  28
ENDBRANCH  18  20
ENDBRANCH  17  19
ENDBRANCH   1  17
TORSDOF 10
ENDMDL
MODEL 4
REMARK VINA RESULT:    -6.974      3.473      7.076
REMARK INTER + INTRA:         -11.507
REMARK INTER:                 -10.709
REMARK INTRA:                  -0.798
REMARK UNBOUND:                -0.864
REMARK  Name = 969516
REMARK  12 active torsions:
REMARK  status: ('A' for Active; 'I' for Inactive)
REMARK    1  A    between atoms: O_1  and  C_12
REMARK    2  A    between atoms: O_1  and  C_26
REMARK    3  A    between atoms: O_2  and  C_13
REMARK    4  A    between atoms: O_2  and  C_27
REMARK    5  A    between atoms: O_3  and  C_18
REMARK    6  A    between atoms: O_4  and  C_19
REMARK    7  A    between atoms: C_7  and  C_16
REMARK    8  A    between atoms: C_8  and  C_17
REMARK    9  A    between atoms: C_9  and  C_20
REMARK   10  A    between atoms: C_9  and  C_21
REMARK   11  A    between atoms: C_20  and  C_24
REMARK   12  A    between atoms: C_21  and  C_25
REMARK                            x       y       z     vdW  Elec       q    Type
REMARK                         _______ _______ _______ _____ _____    ______ ____
ROOT
ATOM      1  C   UNL     1       7.372  10.033  29.018  0.00  0.00    +0.000 C 
ENDROOT
BRANCH   1   3
ATOM      2  O   UNL     1       8.974  10.982  30.547  0.00  0.00    +0.000 OA
ATOM      3  C   UNL     1       8.357   9.990  30.169  0.00  0.00    +0.000 C 
BRANCH   3   5
ATOM      4  C   UNL     1       8.100   7.545  30.243  0.00  0.00    +0.000 C 
ATOM      5  C   UNL     1       8.498   8.670  30.853  0.00  0.00    +0.000 C 
BRANCH   4   6
ATOM      6  C   UNL     1       8.185   6.198  30.834  0.00  0.00    +0.000 A 
ATOM      7  C   UNL     1       9.428   5.612  31.011  0.00  0.00    +0.000 A 
ATOM      8  C   UNL     1       9.508   4.336  31.569  0.00  0.00    +0.000 A 
ATOM      9  C   UNL     1       7.020   5.543  31.199  0.00  0.00    +0.000 A 
ATOM     10  C   UNL     1       8.344   3.664  31.942  0.00  0.00    +0.000 A 
ATOM     11  C   UNL     1       7.100   4.267  31.758  0.00  0.00    +0.000 A 
BRANCH   8  12
ATOM     12  O   UNL     1      10.729   3.757  31.745  0.00  0.00    +0.000 OA
ATOM     13  C   UNL     1      11.794   4.227  30.921  0.00  0.00    +0.000 C 
ENDBRANCH   8  12
BRANCH  10  14
ATOM     14  O   UNL     1       8.410   2.418  32.490  0.00  0.00    +0.000 OA
ATOM     15  H   UNL     1       7.642   2.300  33.074  0.00  0.00    +0.000 HD
ENDBRANCH  10  14
ENDBRANCH   4   6
ENDBRANCH   3   5
ENDBRANCH   1   3
BRANCH   1  17
ATOM     16  O   UNL     1       6.256  12.165  28.874  0.00  0.00    +0.000 OA
ATOM     17  C   UNL     1       7.117  11.408  28.432  0.00  0.00    +0.000 C 
BRANCH  17  19
ATOM     18  C   UNL     1       8.252  10.962  26.295  0.00  0.00    +0.000 C 
ATOM     19  C   UNL     1       8.011  11.809  27.306  0.00  0.00    +0.000 C 
BRANCH  18  20
ATOM     20  C   UNL     1       9.124  11.257  25.145  0.00  0.00    +0.000 A 
ATOM     21  C   UNL     1       8.643  12.044  24.112  0.00  0.00    +0.000 A 
ATOM     22  C   UNL     1       9.470  12.322  23.023  0.00  0.00    +0.000 A 
ATOM     23  C   UNL     1      10.410  10.740  25.121  0.00  0.00    +0.000 A 
ATOM     24  C   UNL     1      10.766  11.809  22.984  0.00  0.00    +0.000 A 
ATOM     25  C   UNL     1      11.237  11.018  24.032  0.00  0.00    +0.000 A 
BRANCH  22  26
ATOM     26  O   UNL     1       9.000  13.096  22.005  0.00  0.00    +0.000 OA
ATOM     27  C   UNL     1       8.087  14.136  22.350  0.00  0.00    +0.000 C 
ENDBRANCH  22  26
BRANCH  24  28
ATOM     28  O   UNL     1      11.585  12.075  21.927  0.00  0.00    +0.000 OA
ATOM     29  H   UNL     1      11.647  13.038  21.809  0.00  0.00    +0.000 HD
ENDBRANCH  24  28
ENDBRANCH  18  20
ENDBRANCH  17  19
ENDBRANCH   1  17
TORSDOF 10
ENDMDL
MODEL 5
REMARK VINA RESULT:    -6.803      3.170      7.579
REMARK INTER + INTRA:         -11.246
REMARK INTER:                  -9.567
REMARK INTRA:                  -1.679
REMARK UNBOUND:                -0.864
REMARK  Name = 969516
REMARK  12 active torsions:
REMARK  status: ('A' for Active; 'I' for Inactive)
REMARK    1  A    between atoms: O_1  and  C_12
REMARK    2  A    between atoms: O_1  and  C_26
REMARK    3  A    between atoms: O_2  and  C_13
REMARK    4  A    between atoms: O_2  and  C_27
REMARK    5  A    between atoms: O_3  and  C_18
REMARK    6  A    between atoms: O_4  and  C_19
REMARK    7  A    between atoms: C_7  and  C_16
REMARK    8  A    between atoms: C_8  and  C_17
REMARK    9  A    between atoms: C_9  and  C_20
REMARK   10  A    between atoms: C_9  and  C_21
REMARK   11  A    between atoms: C_20  and  C_24
REMARK   12  A    between atoms: C_21  and  C_25
REMARK                            x       y       z     vdW  Elec       q    Type
REMARK                         _______ _______ _______ _____ _____    ______ ____
ROOT
ATOM      1  C   UNL     1       9.947   9.444  24.091  0.00  0.00    +0.000 C 
ENDROOT
BRANCH   1   3
ATOM      2  O   UNL     1       9.906  11.439  22.740  0.00  0.00    +0.000 OA
ATOM      3  C   UNL     1       9.832  10.938  23.858  0.00  0.00    +0.000 C 
BRANCH   3   5
ATOM      4  C   UNL     1       8.543  11.478  25.881  0.00  0.00    +0.000 C 
ATOM      5  C   UNL     1       9.573  11.765  25.074  0.00  0.00    +0.000 C 
BRANCH   4   6
ATOM      6  C   UNL     1       8.196  12.237  27.097  0.00  0.00    +0.000 A 
ATOM      7  C   UNL     1       9.106  12.301  28.140  0.00  0.00    +0.000 A 
ATOM      8  C   UNL     1       8.776  13.018  29.290  0.00  0.00    +0.000 A 
ATOM      9  C   UNL     1       6.966  12.870  27.172  0.00  0.00    +0.000 A 
ATOM     10  C   UNL     1       7.542  13.661  29.381  0.00  0.00    +0.000 A 
ATOM     11  C   UNL     1       6.637  13.588  28.323  0.00  0.00    +0.000 A 
BRANCH   8  12
ATOM     12  O   UNL     1       9.669  13.083  30.317  0.00  0.00    +0.000 OA
ATOM     13  C   UNL     1      10.548  14.206  30.343  0.00  0.00    +0.000 C 
ENDBRANCH   8  12
BRANCH  10  14
ATOM     14  O   UNL     1       7.210  14.366  30.499  0.00  0.00    +0.000 OA
ATOM     15  H   UNL     1       7.924  14.259  31.151  0.00  0.00    +0.000 HD
ENDBRANCH  10  14
ENDBRANCH   4   6
ENDBRANCH   3   5
ENDBRANCH   1   3
BRANCH   1  17
ATOM     16  O   UNL     1      12.274   9.355  24.714  0.00  0.00    +0.000 OA
ATOM     17  C   UNL     1      11.119   9.010  24.949  0.00  0.00    +0.000 C 
BRANCH  17  19
ATOM     18  C   UNL     1      10.033   8.667  27.131  0.00  0.00    +0.000 C 
ATOM     19  C   UNL     1      10.778   8.168  26.134  0.00  0.00    +0.000 C 
BRANCH  18  20
ATOM     20  C   UNL     1       9.651   7.925  28.344  0.00  0.00    +0.000 A 
ATOM     21  C   UNL     1       9.095   8.609  29.412  0.00  0.00    +0.000 A 
ATOM     22  C   UNL     1       8.734   7.905  30.561  0.00  0.00    +0.000 A 
ATOM     23  C   UNL     1       9.858   6.555  28.393  0.00  0.00    +0.000 A 
ATOM     24  C   UNL     1       8.935   6.527  30.626  0.00  0.00    +0.000 A 
ATOM     25  C   UNL     1       9.497   5.851  29.542  0.00  0.00    +0.000 A 
BRANCH  22  26
ATOM     26  O   UNL     1       8.185   8.575  31.612  0.00  0.00    +0.000 OA
ATOM     27  C   UNL     1       8.462   9.971  31.708  0.00  0.00    +0.000 C 
ENDBRANCH  22  26
BRANCH  24  28
ATOM     28  O   UNL     1       8.585   5.827  31.741  0.00  0.00    +0.000 OA
ATOM     29  H   UNL     1       9.370   5.716  32.305  0.00  0.00    +0.000 HD
ENDBRANCH  24  28
ENDBRANCH  18  20
ENDBRANCH  17  19
ENDBRANCH   1  17
TORSDOF 10
ENDMDL
MODEL 6
REMARK VINA RESULT:    -6.638      2.390      8.178
REMARK INTER + INTRA:         -10.994
REMARK INTER:                  -9.414
REMARK INTRA:                  -1.580
REMARK UNBOUND:                -0.864
REMARK  Name = 969516
REMARK  12 active torsions:
REMARK  status: ('A' for Active; 'I' for Inactive)
REMARK    1  A    between atoms: O_1  and  C_12
REMARK    2  A    between atoms: O_1  and  C_26
REMARK    3  A    between atoms: O_2  and  C_13
REMARK    4  A    between atoms: O_2  and  C_27
REMARK    5  A    between atoms: O_3  and  C_18
REMARK    6  A    between atoms: O_4  and  C_19
REMARK    7  A    between atoms: C_7  and  C_16
REMARK    8  A    between atoms: C_8  and  C_17
REMARK    9  A    between atoms: C_9  and  C_20
REMARK   10  A    between atoms: C_9  and  C_21
REMARK   11  A    between atoms: C_20  and  C_24
REMARK   12  A    between atoms: C_21  and  C_25
REMARK                            x       y       z     vdW  Elec       q    Type
REMARK                         _______ _______ _______ _____ _____    ______ ____
ROOT
ATOM      1  C   UNL     1       8.240   5.652  29.655  0.00  0.00    +0.000 C 
ENDROOT
BRANCH   1   3
ATOM      2  O   UNL     1       7.333   5.902  31.873  0.00  0.00    +0.000 OA
ATOM      3  C   UNL     1       7.687   6.438  30.827  0.00  0.00    +0.000 C 
BRANCH   3   5
ATOM      4  C   UNL     1       8.462   8.712  31.352  0.00  0.00    +0.000 C 
ATOM      5  C   UNL     1       7.641   7.920  30.650  0.00  0.00    +0.000 C 
BRANCH   4   6
ATOM      6  C   UNL     1       8.489  10.183  31.259  0.00  0.00    +0.000 A 
ATOM      7  C   UNL     1       8.547  10.935  32.422  0.00  0.00    +0.000 A 
ATOM      8  C   UNL     1       8.572  12.327  32.332  0.00  0.00    +0.000 A 
ATOM      9  C   UNL     1       8.453  10.784  30.012  0.00  0.00    +0.000 A 
ATOM     10  C   UNL     1       8.536  12.947  31.084  0.00  0.00    +0.000 A 
ATOM     11  C   UNL     1       8.477  12.176  29.923  0.00  0.00    +0.000 A 
BRANCH   8  12
ATOM     12  O   UNL     1       8.630  13.070  33.473  0.00  0.00    +0.000 OA
ATOM     13  C   UNL     1       8.166  12.454  34.673  0.00  0.00    +0.000 C 
ENDBRANCH   8  12
BRANCH  10  14
ATOM     14  O   UNL     1       8.560  14.305  30.985  0.00  0.00    +0.000 OA
ATOM     15  H   UNL     1       9.419  14.570  30.612  0.00  0.00    +0.000 HD
ENDBRANCH  10  14
ENDBRANCH   4   6
ENDBRANCH   3   5
ENDBRANCH   1   3
BRANCH   1  17
ATOM     16  O   UNL     1      10.568   5.299  30.174  0.00  0.00    +0.000 OA
ATOM     17  C   UNL     1       9.732   5.795  29.423  0.00  0.00    +0.000 C 
BRANCH  17  19
ATOM     18  C   UNL     1       9.831   7.843  28.063  0.00  0.00    +0.000 C 
ATOM     19  C   UNL     1      10.128   6.542  28.192  0.00  0.00    +0.000 C 
BRANCH  18  20
ATOM     20  C   UNL     1      10.167   8.665  26.888  0.00  0.00    +0.000 A 
ATOM     21  C   UNL     1       9.546   9.892  26.717  0.00  0.00    +0.000 A 
ATOM     22  C   UNL     1       9.863  10.669  25.603  0.00  0.00    +0.000 A 
ATOM     23  C   UNL     1      11.098   8.195  25.975  0.00  0.00    +0.000 A 
ATOM     24  C   UNL     1      10.798  10.210  24.676  0.00  0.00    +0.000 A 
ATOM     25  C   UNL     1      11.415   8.973  24.861  0.00  0.00    +0.000 A 
BRANCH  22  26
ATOM     26  O   UNL     1       9.255  11.876  25.434  0.00  0.00    +0.000 OA
ATOM     27  C   UNL     1       9.664  12.936  26.297  0.00  0.00    +0.000 C 
ENDBRANCH  22  26
BRANCH  24  28
ATOM     28  O   UNL     1      11.119  10.961  23.585  0.00  0.00    +0.000 OA
ATOM     29  H   UNL     1      11.891  11.512  23.797  0.00  0.00    +0.000 HD
ENDBRANCH  24  28
ENDBRANCH  18  20
ENDBRANCH  17  19
ENDBRANCH   1  17
TORSDOF 10
ENDMDL
MODEL 7
REMARK VINA RESULT:    -6.613      1.209      2.057
REMARK INTER + INTRA:         -10.956
REMARK INTER:                 -10.019
REMARK INTRA:                  -0.937
REMARK UNBOUND:                -0.864
REMARK  Name = 969516
REMARK  12 active torsions:
REMARK  status: ('A' for Active; 'I' for Inactive)
REMARK    1  A    between atoms: O_1  and  C_12
REMARK    2  A    between atoms: O_1  and  C_26
REMARK    3  A    between atoms: O_2  and  C_13
REMARK    4  A    between atoms: O_2  and  C_27
REMARK    5  A    between atoms: O_3  and  C_18
REMARK    6  A    between atoms: O_4  and  C_19
REMARK    7  A    between atoms: C_7  and  C_16
REMARK    8  A    between atoms: C_8  and  C_17
REMARK    9  A    between atoms: C_9  and  C_20
REMARK   10  A    between atoms: C_9  and  C_21
REMARK   11  A    between atoms: C_20  and  C_24
REMARK   12  A    between atoms: C_21  and  C_25
REMARK                            x       y       z     vdW  Elec       q    Type
REMARK                         _______ _______ _______ _____ _____    ______ ____
ROOT
ATOM      1  C   UNL     1       7.721  10.360  28.967  0.00  0.00    +0.000 C 
ENDROOT
BRANCH   1   3
ATOM      2  O   UNL     1       9.893  10.030  27.976  0.00  0.00    +0.000 OA
ATOM      3  C   UNL     1       8.947   9.550  28.595  0.00  0.00    +0.000 C 
BRANCH   3   5
ATOM      4  C   UNL     1       8.312   7.794  30.196  0.00  0.00    +0.000 C 
ATOM      5  C   UNL     1       8.958   8.135  29.073  0.00  0.00    +0.000 C 
BRANCH   4   6
ATOM      6  C   UNL     1       8.271   6.431  30.757  0.00  0.00    +0.000 A 
ATOM      7  C   UNL     1       9.460   5.761  30.999  0.00  0.00    +0.000 A 
ATOM      8  C   UNL     1       9.419   4.471  31.529  0.00  0.00    +0.000 A 
ATOM      9  C   UNL     1       7.045   5.847  31.029  0.00  0.00    +0.000 A 
ATOM     10  C   UNL     1       8.193   3.870  31.808  0.00  0.00    +0.000 A 
ATOM     11  C   UNL     1       7.005   4.557  31.559  0.00  0.00    +0.000 A 
BRANCH   8  12
ATOM     12  O   UNL     1      10.586   3.809  31.769  0.00  0.00    +0.000 OA
ATOM     13  C   UNL     1      11.713   4.172  30.974  0.00  0.00    +0.000 C 
ENDBRANCH   8  12
BRANCH  10  14
ATOM     14  O   UNL     1       8.141   2.611  32.327  0.00  0.00    +0.000 OA
ATOM     15  H   UNL     1       8.369   1.980  31.622  0.00  0.00    +0.000 HD
ENDBRANCH  10  14
ENDBRANCH   4   6
ENDBRANCH   3   5
ENDBRANCH   1   3
BRANCH   1  17
ATOM     16  O   UNL     1       7.419  12.513  27.926  0.00  0.00    +0.000 OA
ATOM     17  C   UNL     1       7.880  11.865  28.862  0.00  0.00    +0.000 C 
BRANCH  17  19
ATOM     18  C   UNL     1       8.275  12.228  31.263  0.00  0.00    +0.000 C 
ATOM     19  C   UNL     1       8.596  12.522  29.995  0.00  0.00    +0.000 C 
BRANCH  18  20
ATOM     20  C   UNL     1       8.912  12.828  32.448  0.00  0.00    +0.000 A 
ATOM     21  C   UNL     1      10.076  13.563  32.295  0.00  0.00    +0.000 A 
ATOM     22  C   UNL     1      10.679  14.130  33.418  0.00  0.00    +0.000 A 
ATOM     23  C   UNL     1       8.334  12.643  33.694  0.00  0.00    +0.000 A 
ATOM     24  C   UNL     1      10.109  13.953  34.678  0.00  0.00    +0.000 A 
ATOM     25  C   UNL     1       8.937  13.210  34.817  0.00  0.00    +0.000 A 
BRANCH  22  26
ATOM     26  O   UNL     1      11.822  14.855  33.270  0.00  0.00    +0.000 OA
ATOM     27  C   UNL     1      12.905  14.226  32.586  0.00  0.00    +0.000 C 
ENDBRANCH  22  26
BRANCH  24  28
ATOM     28  O   UNL     1      10.687  14.503  35.783  0.00  0.00    +0.000 OA
ATOM     29  H   UNL     1      10.581  13.894  36.533  0.00  0.00    +0.000 HD
ENDBRANCH  24  28
ENDBRANCH  18  20
ENDBRANCH  17  19
ENDBRANCH   1  17
TORSDOF 10
ENDMDL
MODEL 8
REMARK VINA RESULT:    -6.592      3.003      7.082
REMARK INTER + INTRA:         -10.923
REMARK INTER:                  -9.437
REMARK INTRA:                  -1.487
REMARK UNBOUND:                -0.864
REMARK  Name = 969516
REMARK  12 active torsions:
REMARK  status: ('A' for Active; 'I' for Inactive)
REMARK    1  A    between atoms: O_1  and  C_12
REMARK    2  A    between atoms: O_1  and  C_26
REMARK    3  A    between atoms: O_2  and  C_13
REMARK    4  A    between atoms: O_2  and  C_27
REMARK    5  A    between atoms: O_3  and  C_18
REMARK    6  A    between atoms: O_4  and  C_19
REMARK    7  A    between atoms: C_7  and  C_16
REMARK    8  A    between atoms: C_8  and  C_17
REMARK    9  A    between atoms: C_9  and  C_20
REMARK   10  A    between atoms: C_9  and  C_21
REMARK   11  A    between atoms: C_20  and  C_24
REMARK   12  A    between atoms: C_21  and  C_25
REMARK                            x       y       z     vdW  Elec       q    Type
REMARK                         _______ _______ _______ _____ _____    ______ ____
ROOT
ATOM      1  C   UNL     1       9.248  12.735  31.135  0.00  0.00    +0.000 C 
ENDROOT
BRANCH   1   3
ATOM      2  O   UNL     1       8.234  12.080  33.220  0.00  0.00    +0.000 OA
ATOM      3  C   UNL     1       8.526  11.781  32.066  0.00  0.00    +0.000 C 
BRANCH   3   5
ATOM      4  C   UNL     1       9.091   9.612  31.053  0.00  0.00    +0.000 C 
ATOM      5  C   UNL     1       8.146  10.463  31.475  0.00  0.00    +0.000 C 
BRANCH   4   6
ATOM      6  C   UNL     1       8.821   8.296  30.447  0.00  0.00    +0.000 A 
ATOM      7  C   UNL     1       7.865   7.470  31.017  0.00  0.00    +0.000 A 
ATOM      8  C   UNL     1       7.611   6.224  30.443  0.00  0.00    +0.000 A 
ATOM      9  C   UNL     1       9.529   7.910  29.321  0.00  0.00    +0.000 A 
ATOM     10  C   UNL     1       8.316   5.821  29.310  0.00  0.00    +0.000 A 
ATOM     11  C   UNL     1       9.275   6.663  28.748  0.00  0.00    +0.000 A 
BRANCH   8  12
ATOM     12  O   UNL     1       6.671   5.409  31.001  0.00  0.00    +0.000 OA
ATOM     13  C   UNL     1       7.072   4.633  32.128  0.00  0.00    +0.000 C 
ENDBRANCH   8  12
BRANCH  10  14
ATOM     14  O   UNL     1       8.075   4.607  28.741  0.00  0.00    +0.000 OA
ATOM     15  H   UNL     1       8.085   4.715  27.774  0.00  0.00    +0.000 HD
ENDBRANCH  10  14
ENDBRANCH   4   6
ENDBRANCH   3   5
ENDBRANCH   1   3
BRANCH   1  17
ATOM     16  O   UNL     1       7.510  13.867  29.905  0.00  0.00    +0.000 OA
ATOM     17  C   UNL     1       8.486  13.121  29.882  0.00  0.00    +0.000 C 
BRANCH  17  19
ATOM     18  C   UNL     1       8.195  12.056  27.683  0.00  0.00    +0.000 C 
ATOM     19  C   UNL     1       9.024  12.573  28.601  0.00  0.00    +0.000 C 
BRANCH  18  20
ATOM     20  C   UNL     1       8.625  11.482  26.396  0.00  0.00    +0.000 A 
ATOM     21  C   UNL     1       8.305  12.139  25.219  0.00  0.00    +0.000 A 
ATOM     22  C   UNL     1       8.712  11.595  24.001  0.00  0.00    +0.000 A 
ATOM     23  C   UNL     1       9.341  10.295  26.389  0.00  0.00    +0.000 A 
ATOM     24  C   UNL     1       9.433  10.401  23.977  0.00  0.00    +0.000 A 
ATOM     25  C   UNL     1       9.748   9.751  25.170  0.00  0.00    +0.000 A 
BRANCH  22  26
ATOM     26  O   UNL     1       8.400  12.239  22.842  0.00  0.00    +0.000 OA
ATOM     27  C   UNL     1       8.582  13.653  22.817  0.00  0.00    +0.000 C 
ENDBRANCH  22  26
BRANCH  24  28
ATOM     28  O   UNL     1       9.838   9.860  22.793  0.00  0.00    +0.000 OA
ATOM     29  H   UNL     1       9.495  10.403  22.063  0.00  0.00    +0.000 HD
ENDBRANCH  24  28
ENDBRANCH  18  20
ENDBRANCH  17  19
ENDBRANCH   1  17
TORSDOF 10
ENDMDL
MODEL 9
REMARK VINA RESULT:    -6.539      4.593      9.072
REMARK INTER + INTRA:         -10.844
REMARK INTER:                 -10.135
REMARK INTRA:                  -0.709
REMARK UNBOUND:                -0.864
REMARK  Name = 969516
REMARK  12 active torsions:
REMARK  status: ('A' for Active; 'I' for Inactive)
REMARK    1  A    between atoms: O_1  and  C_12
REMARK    2  A    between atoms: O_1  and  C_26
REMARK    3  A    between atoms: O_2  and  C_13
REMARK    4  A    between atoms: O_2  and  C_27
REMARK    5  A    between atoms: O_3  and  C_18
REMARK    6  A    between atoms: O_4  and  C_19
REMARK    7  A    between atoms: C_7  and  C_16
REMARK    8  A    between atoms: C_8  and  C_17
REMARK    9  A    between atoms: C_9  and  C_20
REMARK   10  A    between atoms: C_9  and  C_21
REMARK   11  A    between atoms: C_20  and  C_24
REMARK   12  A    between atoms: C_21  and  C_25
REMARK                            x       y       z     vdW  Elec       q    Type
REMARK                         _______ _______ _______ _____ _____    ______ ____
ROOT
ATOM      1  C   UNL     1       9.269   9.940  27.630  0.00  0.00    +0.000 C 
ENDROOT
BRANCH   1   3
ATOM      2  O   UNL     1       8.626  11.447  25.863  0.00  0.00    +0.000 OA
ATOM      3  C   UNL     1       9.468  11.115  26.694  0.00  0.00    +0.000 C 
BRANCH   3   5
ATOM      4  C   UNL     1      11.665  11.893  25.908  0.00  0.00    +0.000 C 
ATOM      5  C   UNL     1      10.737  11.881  26.875  0.00  0.00    +0.000 C 
BRANCH   4   6
ATOM      6  C   UNL     1      12.952  12.606  25.992  0.00  0.00    +0.000 A 
ATOM      7  C   UNL     1      13.346  13.153  27.203  0.00  0.00    +0.000 A 
ATOM      8  C   UNL     1      14.565  13.828  27.282  0.00  0.00    +0.000 A 
ATOM      9  C   UNL     1      13.742  12.715  24.860  0.00  0.00    +0.000 A 
ATOM     10  C   UNL     1      15.370  13.947  26.150  0.00  0.00    +0.000 A 
ATOM     11  C   UNL     1      14.960  13.391  24.939  0.00  0.00    +0.000 A 
BRANCH   8  12
ATOM     12  O   UNL     1      14.955  14.368  28.470  0.00  0.00    +0.000 OA
ATOM     13  C   UNL     1      14.677  13.613  29.648  0.00  0.00    +0.000 C 
ENDBRANCH   8  12
BRANCH  10  14
ATOM     14  O   UNL     1      16.563  14.603  26.215  0.00  0.00    +0.000 OA
ATOM     15  H   UNL     1      16.824  14.855  25.313  0.00  0.00    +0.000 HD
ENDBRANCH  10  14
ENDBRANCH   4   6
ENDBRANCH   3   5
ENDBRANCH   1   3
BRANCH   1  17
ATOM     16  O   UNL     1      10.762   8.614  26.278  0.00  0.00    +0.000 OA
ATOM     17  C   UNL     1      10.051   8.689  27.277  0.00  0.00    +0.000 C 
BRANCH  17  19
ATOM     18  C   UNL     1       8.897   7.484  29.085  0.00  0.00    +0.000 C 
ATOM     19  C   UNL     1       9.941   7.561  28.248  0.00  0.00    +0.000 C 
BRANCH  18  20
ATOM     20  C   UNL     1       8.701   6.419  30.084  0.00  0.00    +0.000 A 
ATOM     21  C   UNL     1       9.773   5.618  30.442  0.00  0.00    +0.000 A 
ATOM     22  C   UNL     1       9.587   4.610  31.388  0.00  0.00    +0.000 A 
ATOM     23  C   UNL     1       7.447   6.240  30.648  0.00  0.00    +0.000 A 
ATOM     24  C   UNL     1       8.332   4.417  31.963  0.00  0.00    +0.000 A 
ATOM     25  C   UNL     1       7.262   5.232  31.594  0.00  0.00    +0.000 A 
BRANCH  22  26
ATOM     26  O   UNL     1      10.640   3.821  31.742  0.00  0.00    +0.000 OA
ATOM     27  C   UNL     1      11.840   3.961  30.983  0.00  0.00    +0.000 C 
ENDBRANCH  22  26
BRANCH  24  28
ATOM     28  O   UNL     1       8.138   3.438  32.890  0.00  0.00    +0.000 OA
ATOM     29  H   UNL     1       8.612   3.675  33.705  0.00  0.00    +0.000 HD
ENDBRANCH  24  28
ENDBRANCH  18  20
ENDBRANCH  17  19
ENDBRANCH   1  17
TORSDOF 10
ENDMDL
