MODEL 1
REMARK VINA RESULT:    -5.735      0.000      0.000
REMARK INTER + INTRA:          -7.458
REMARK INTER:                  -6.909
REMARK INTRA:                  -0.549
REMARK UNBOUND:                -0.549
REMARK  Name = 2244
REMARK  5 active torsions:
REMARK  status: ('A' for Active; 'I' for Inactive)
REMARK    1  A    between atoms: O_1  and  C_5
REMARK    2  A    between atoms: O_1  and  C_12
REMARK    3  A    between atoms: O_2  and  C_11
REMARK    4  A    between atoms: C_6  and  C_11
REMARK    5  A    between atoms: C_12  and  C_13
REMARK                            x       y       z     vdW  Elec       q    Type
REMARK                         _______ _______ _______ _____ _____    ______ ____
ROOT
ATOM      1  C   UNL     1       3.255  11.895  10.893  0.00  0.00    +0.000 A 
ATOM      2  C   UNL     1       2.098  12.103  11.644  0.00  0.00    +0.000 A 
ATOM      3  C   UNL     1       4.500  11.887  11.520  0.00  0.00    +0.000 A 
ATOM      4  C   UNL     1       2.187  12.303  13.021  0.00  0.00    +0.000 A 
ATOM      5  C   UNL     1       4.590  12.087  12.898  0.00  0.00    +0.000 A 
ATOM      6  C   UNL     1       3.433  12.296  13.647  0.00  0.00    +0.000 A 
ENDROOT
BRANCH   2   8
ATOM      7  O   UNL     1      -0.081  12.969  11.148  0.00  0.00    +0.000 OA
ATOM      8  C   UNL     1       0.787  12.112  11.009  0.00  0.00    +0.000 C 
BRANCH   8   9
ATOM      9  O   UNL     1       0.603  11.027  10.207  0.00  0.00    +0.000 OA
ATOM     10  H   UNL     1       0.091  11.250   9.401  0.00  0.00    +0.000 HD
ENDBRANCH   8   9
ENDBRANCH   2   8
BRANCH   1  11
ATOM     11  O   UNL     1       3.189  11.695   9.547  0.00  0.00    +0.000 OA
BRANCH  11  13
ATOM     12  O   UNL     1       3.267  13.953   8.935  0.00  0.00    +0.000 OA
ATOM     13  C   UNL     1       3.621  12.791   8.784  0.00  0.00    +0.000 C 
ATOM     14  C   UNL     1       4.594  12.334   7.737  0.00  0.00    +0.000 C 
ENDBRANCH  11  13
ENDBRANCH   1  11
TORSDOF 4
ENDMDL
MODEL 2
REMARK VINA RESULT:    -5.173      1.691      3.562
REMARK INTER + INTRA:          -6.781
REMARK INTER:                  -6.055
REMARK INTRA:                  -0.726
REMARK UNBOUND:                -0.549
REMARK  Name = 2244
REMARK  5 active torsions:
REMARK  status: ('A' for Active; 'I' for Inactive)
REMARK    1  A    between atoms: O_1  and  C_5
REMARK    2  A    between atoms: O_1  and  C_12
REMARK    3  A    between atoms: O_2  and  C_11
REMARK    4  A    between atoms: C_6  and  C_11
REMARK    5  A    between atoms: C_12  and  C_13
REMARK                            x       y       z     vdW  Elec       q    Type
REMARK                         _______ _______ _______ _____ _____    ______ ____
ROOT
ATOM      1  C   UNL     1       3.398  12.053  11.233  0.00  0.00    +0.000 A 
ATOM      2  C   UNL     1       2.343  12.398  10.389  0.00  0.00    +0.000 A 
ATOM      3  C   UNL     1       4.700  12.438  10.914  0.00  0.00    +0.000 A 
ATOM      4  C   UNL     1       2.589  13.128   9.227  0.00  0.00    +0.000 A 
ATOM      5  C   UNL     1       4.947  13.169   9.752  0.00  0.00    +0.000 A 
ATOM      6  C   UNL     1       3.891  13.513   8.909  0.00  0.00    +0.000 A 
ENDROOT
BRANCH   2   8
ATOM      7  O   UNL     1       0.260  11.263  10.039  0.00  0.00    +0.000 OA
ATOM      8  C   UNL     1       0.975  12.007  10.705  0.00  0.00    +0.000 C 
BRANCH   8   9
ATOM      9  O   UNL     1       0.540  12.574  11.864  0.00  0.00    +0.000 OA
ATOM     10  H   UNL     1      -0.394  12.341  12.057  0.00  0.00    +0.000 HD
ENDBRANCH   8   9
ENDBRANCH   2   8
BRANCH   1  11
ATOM     11  O   UNL     1       3.177  11.341  12.375  0.00  0.00    +0.000 OA
BRANCH  11  13
ATOM     12  O   UNL     1       2.805  13.134  13.832  0.00  0.00    +0.000 OA
ATOM     13  C   UNL     1       3.361  12.080  13.554  0.00  0.00    +0.000 C 
ATOM     14  C   UNL     1       4.351  11.388  14.443  0.00  0.00    +0.000 C 
ENDBRANCH  11  13
ENDBRANCH   1  11
TORSDOF 4
ENDMDL
MODEL 3
REMARK VINA RESULT:    -5.094      2.033      3.348
REMARK INTER + INTRA:          -6.685
REMARK INTER:                  -5.957
REMARK INTRA:                  -0.728
REMARK UNBOUND:                -0.549
REMARK  Name = 2244
REMARK  5 active torsions:
REMARK  status: ('A' for Active; 'I' for Inactive)
REMARK    1  A    between atoms: O_1  and  C_5
REMARK    2  A    between atoms: O_1  and  C_12
REMARK    3  A    between atoms: O_2  and  C_11
REMARK    4  A    between atoms: C_6  and  C_11
REMARK    5  A    between atoms: C_12  and  C_13
REMARK                            x       y       z     vdW  Elec       q    Type
REMARK                         _______ _______ _______ _____ _____    ______ ____
ROOT
ATOM      1  C   UNL     1       3.397  13.333  11.294  0.00  0.00    +0.000 A 
ATOM      2  C   UNL     1       2.608  12.859  10.247  0.00  0.00    +0.000 A 
ATOM      3  C   UNL     1       2.896  13.344  12.595  0.00  0.00    +0.000 A 
ATOM      4  C   UNL     1       1.318  12.394  10.500  0.00  0.00    +0.000 A 
ATOM      5  C   UNL     1       1.605  12.880  12.850  0.00  0.00    +0.000 A 
ATOM      6  C   UNL     1       0.817  12.406  11.802  0.00  0.00    +0.000 A 
ENDROOT
BRANCH   2   8
ATOM      7  O   UNL     1       2.785  13.596   7.972  0.00  0.00    +0.000 OA
ATOM      8  C   UNL     1       3.113  12.837   8.880  0.00  0.00    +0.000 C 
BRANCH   8   9
ATOM      9  O   UNL     1       4.029  11.846   8.693  0.00  0.00    +0.000 OA
ATOM     10  H   UNL     1       4.944  12.161   8.851  0.00  0.00    +0.000 HD
ENDBRANCH   8   9
ENDBRANCH   2   8
BRANCH   1  11
ATOM     11  O   UNL     1       4.662  13.789  11.066  0.00  0.00    +0.000 OA
BRANCH  11  13
ATOM     12  O   UNL     1       5.782  11.736  11.148  0.00  0.00    +0.000 OA
ATOM     13  C   UNL     1       5.671  12.908  11.483  0.00  0.00    +0.000 C 
ATOM     14  C   UNL     1       6.613  13.612  12.415  0.00  0.00    +0.000 C 
ENDBRANCH  11  13
ENDBRANCH   1  11
TORSDOF 4
ENDMDL
MODEL 4
REMARK VINA RESULT:    -5.035     11.172     12.966
REMARK INTER + INTRA:          -6.615
REMARK INTER:                  -6.149
REMARK INTRA:                  -0.465
REMARK UNBOUND:                -0.549
REMARK  Name = 2244
REMARK  5 active torsions:
REMARK  status: ('A' for Active; 'I' for Inactive)
REMARK    1  A    between atoms: O_1  and  C_5
REMARK    2  A    between atoms: O_1  and  C_12
REMARK    3  A    between atoms: O_2  and  C_11
REMARK    4  A    between atoms: C_6  and  C_11
REMARK    5  A    between atoms: C_12  and  C_13
REMARK                            x       y       z     vdW  Elec       q    Type
REMARK                         _______ _______ _______ _____ _____    ______ ____
ROOT
ATOM      1  C   UNL     1      -7.435  18.368   7.544  0.00  0.00    +0.000 A 
ATOM      2  C   UNL     1      -8.518  19.063   7.005  0.00  0.00    +0.000 A 
ATOM      3  C   UNL     1      -7.381  18.118   8.915  0.00  0.00    +0.000 A 
ATOM      4  C   UNL     1      -9.547  19.506   7.835  0.00  0.00    +0.000 A 
ATOM      5  C   UNL     1      -8.410  18.561   9.747  0.00  0.00    +0.000 A 
ATOM      6  C   UNL     1      -9.491  19.255   9.206  0.00  0.00    +0.000 A 
ENDROOT
BRANCH   2   8
ATOM      7  O   UNL     1      -8.610  20.440   5.045  0.00  0.00    +0.000 OA
ATOM      8  C   UNL     1      -8.595  19.333   5.575  0.00  0.00    +0.000 C 
BRANCH   8   9
ATOM      9  O   UNL     1      -8.652  18.186   4.844  0.00  0.00    +0.000 OA
ATOM     10  H   UNL     1      -8.594  17.388   5.411  0.00  0.00    +0.000 HD
ENDBRANCH   8   9
ENDBRANCH   2   8
BRANCH   1  11
ATOM     11  O   UNL     1      -6.421  17.925   6.748  0.00  0.00    +0.000 OA
BRANCH  11  13
ATOM     12  O   UNL     1      -5.058  16.222   7.595  0.00  0.00    +0.000 OA
ATOM     13  C   UNL     1      -6.051  16.592   6.983  0.00  0.00    +0.000 C 
ATOM     14  C   UNL     1      -7.057  15.665   6.368  0.00  0.00    +0.000 C 
ENDBRANCH  11  13
ENDBRANCH   1  11
TORSDOF 4
ENDMDL
MODEL 5
REMARK VINA RESULT:    -4.942     11.023     12.912
REMARK INTER + INTRA:          -6.502
REMARK INTER:                  -5.781
REMARK INTRA:                  -0.721
REMARK UNBOUND:                -0.549
REMARK  Name = 2244
REMARK  5 active torsions:
REMARK  status: ('A' for Active; 'I' for Inactive)
REMARK    1  A    between atoms: O_1  and  C_5
REMARK    2  A    between atoms: O_1  and  C_12
REMARK    3  A    between atoms: O_2  and  C_11
REMARK    4  A    between atoms: C_6  and  C_11
REMARK    5  A    between atoms: C_12  and  C_13
REMARK                            x       y       z     vdW  Elec       q    Type
REMARK                         _______ _______ _______ _____ _____    ______ ____
ROOT
ATOM      1  C   UNL     1      -7.716  18.599   7.022  0.00  0.00    +0.000 A 
ATOM      2  C   UNL     1      -7.421  19.657   7.880  0.00  0.00    +0.000 A 
ATOM      3  C   UNL     1      -8.056  18.853   5.693  0.00  0.00    +0.000 A 
ATOM      4  C   UNL     1      -7.464  20.970   7.410  0.00  0.00    +0.000 A 
ATOM      5  C   UNL     1      -8.099  20.165   5.222  0.00  0.00    +0.000 A 
ATOM      6  C   UNL     1      -7.804  21.223   6.081  0.00  0.00    +0.000 A 
ENDROOT
BRANCH   2   8
ATOM      7  O   UNL     1      -7.734  19.703  10.256  0.00  0.00    +0.000 OA
ATOM      8  C   UNL     1      -7.061  19.414   9.271  0.00  0.00    +0.000 C 
BRANCH   8   9
ATOM      9  O   UNL     1      -5.848  18.807   9.383  0.00  0.00    +0.000 OA
ATOM     10  H   UNL     1      -5.114  19.409   9.138  0.00  0.00    +0.000 HD
ENDBRANCH   8   9
ENDBRANCH   2   8
BRANCH   1  11
ATOM     11  O   UNL     1      -7.677  17.309   7.462  0.00  0.00    +0.000 OA
BRANCH  11  13
ATOM     12  O   UNL     1      -5.412  16.796   7.172  0.00  0.00    +0.000 OA
ATOM     13  C   UNL     1      -6.596  16.567   6.962  0.00  0.00    +0.000 C 
ATOM     14  C   UNL     1      -7.099  15.433   6.119  0.00  0.00    +0.000 C 
ENDBRANCH  11  13
ENDBRANCH   1  11
TORSDOF 4
ENDMDL
MODEL 6
REMARK VINA RESULT:    -4.915     22.197     24.041
REMARK INTER + INTRA:          -6.470
REMARK INTER:                  -5.760
REMARK INTRA:                  -0.710
REMARK UNBOUND:                -0.549
REMARK  Name = 2244
REMARK  5 active torsions:
REMARK  status: ('A' for Active; 'I' for Inactive)
REMARK    1  A    between atoms: O_1  and  C_5
REMARK    2  A    between atoms: O_1  and  C_12
REMARK    3  A    between atoms: O_2  and  C_11
REMARK    4  A    between atoms: C_6  and  C_11
REMARK    5  A    between atoms: C_12  and  C_13
REMARK                            x       y       z     vdW  Elec       q    Type
REMARK                         _______ _______ _______ _____ _____    ______ ____
ROOT
ATOM      1  C   UNL     1      -5.665  11.355 -11.205  0.00  0.00    +0.000 A 
ATOM      2  C   UNL     1      -4.685  10.612 -11.863  0.00  0.00    +0.000 A 
ATOM      3  C   UNL     1      -6.520  12.181 -11.934  0.00  0.00    +0.000 A 
ATOM      4  C   UNL     1      -4.561  10.695 -13.250  0.00  0.00    +0.000 A 
ATOM      5  C   UNL     1      -6.396  12.265 -13.321  0.00  0.00    +0.000 A 
ATOM      6  C   UNL     1      -5.416  11.522 -13.978  0.00  0.00    +0.000 A 
ENDROOT
BRANCH   2   8
ATOM      7  O   UNL     1      -2.577   9.910 -10.963  0.00  0.00    +0.000 OA
ATOM      8  C   UNL     1      -3.783   9.741 -11.121  0.00  0.00    +0.000 C 
BRANCH   8   9
ATOM      9  O   UNL     1      -4.433   8.667 -10.595  0.00  0.00    +0.000 OA
ATOM     10  H   UNL     1      -4.159   8.492  -9.669  0.00  0.00    +0.000 HD
ENDBRANCH   8   9
ENDBRANCH   2   8
BRANCH   1  11
ATOM     11  O   UNL     1      -5.804  11.286  -9.851  0.00  0.00    +0.000 OA
BRANCH  11  13
ATOM     12  O   UNL     1      -7.271   9.463  -9.841  0.00  0.00    +0.000 OA
ATOM     13  C   UNL     1      -6.930  10.563  -9.428  0.00  0.00    +0.000 C 
ATOM     14  C   UNL     1      -7.672  11.339  -8.380  0.00  0.00    +0.000 C 
ENDBRANCH  11  13
ENDBRANCH   1  11
TORSDOF 4
ENDMDL
MODEL 7
REMARK VINA RESULT:    -4.826     22.122     23.614
REMARK INTER + INTRA:          -6.363
REMARK INTER:                  -5.729
REMARK INTRA:                  -0.633
REMARK UNBOUND:                -0.549
REMARK  Name = 2244
REMARK  5 active torsions:
REMARK  status: ('A' for Active; 'I' for Inactive)
REMARK    1  A    between atoms: O_1  and  C_5
REMARK    2  A    between atoms: O_1  and  C_12
REMARK    3  A    between atoms: O_2  and  C_11
REMARK    4  A    between atoms: C_6  and  C_11
REMARK    5  A    between atoms: C_12  and  C_13
REMARK                            x       y       z     vdW  Elec       q    Type
REMARK                         _______ _______ _______ _____ _____    ______ ____
ROOT
ATOM      1  C   UNL     1      -5.974  11.589 -10.907  0.00  0.00    +0.000 A 
ATOM      2  C   UNL     1      -7.204  11.637 -10.250  0.00  0.00    +0.000 A 
ATOM      3  C   UNL     1      -5.819  12.217 -12.142  0.00  0.00    +0.000 A 
ATOM      4  C   UNL     1      -8.277  12.313 -10.828  0.00  0.00    +0.000 A 
ATOM      5  C   UNL     1      -6.892  12.894 -12.721  0.00  0.00    +0.000 A 
ATOM      6  C   UNL     1      -8.121  12.941 -12.064  0.00  0.00    +0.000 A 
ENDROOT
BRANCH   2   8
ATOM      7  O   UNL     1      -7.315  11.529  -7.858  0.00  0.00    +0.000 OA
ATOM      8  C   UNL     1      -7.387  10.989  -8.958  0.00  0.00    +0.000 C 
BRANCH   8   9
ATOM      9  O   UNL     1      -7.658   9.661  -9.090  0.00  0.00    +0.000 OA
ATOM     10  H   UNL     1      -8.583   9.504  -9.377  0.00  0.00    +0.000 HD
ENDBRANCH   8   9
ENDBRANCH   2   8
BRANCH   1  11
ATOM     11  O   UNL     1      -4.912  10.935 -10.357  0.00  0.00    +0.000 OA
BRANCH  11  13
ATOM     12  O   UNL     1      -5.388   8.692 -10.830  0.00  0.00    +0.000 OA
ATOM     13  C   UNL     1      -4.663   9.674 -10.921  0.00  0.00    +0.000 C 
ATOM     14  C   UNL     1      -3.360   9.694 -11.663  0.00  0.00    +0.000 C 
ENDBRANCH  11  13
ENDBRANCH   1  11
TORSDOF 4
ENDMDL
MODEL 8
REMARK VINA RESULT:    -4.782     11.350     13.109
REMARK INTER + INTRA:          -6.310
REMARK INTER:                  -5.783
REMARK INTRA:                  -0.527
REMARK UNBOUND:                -0.549
REMARK  Name = 2244
REMARK  5 active torsions:
REMARK  status: ('A' for Active; 'I' for Inactive)
REMARK    1  A    between atoms: O_1  and  C_5
REMARK    2  A    between atoms: O_1  and  C_12
REMARK    3  A    between atoms: O_2  and  C_11
REMARK    4  A    between atoms: C_6  and  C_11
REMARK    5  A    between atoms: C_12  and  C_13
REMARK                            x       y       z     vdW  Elec       q    Type
REMARK                         _______ _______ _______ _____ _____    ______ ____
ROOT
ATOM      1  C   UNL     1      -8.323  18.546   7.011  0.00  0.00    +0.000 A 
ATOM      2  C   UNL     1      -7.431  17.697   7.667  0.00  0.00    +0.000 A 
ATOM      3  C   UNL     1      -9.165  19.376   7.750  0.00  0.00    +0.000 A 
ATOM      4  C   UNL     1      -7.380  17.680   9.060  0.00  0.00    +0.000 A 
ATOM      5  C   UNL     1      -9.115  19.360   9.144  0.00  0.00    +0.000 A 
ATOM      6  C   UNL     1      -8.223  18.511   9.798  0.00  0.00    +0.000 A 
ENDROOT
BRANCH   2   8
ATOM      7  O   UNL     1      -5.339  16.670   7.107  0.00  0.00    +0.000 OA
ATOM      8  C   UNL     1      -6.541  16.822   6.914  0.00  0.00    +0.000 C 
BRANCH   8   9
ATOM      9  O   UNL     1      -7.201  16.156   5.926  0.00  0.00    +0.000 OA
ATOM     10  H   UNL     1      -8.080  16.551   5.743  0.00  0.00    +0.000 HD
ENDBRANCH   8   9
ENDBRANCH   2   8
BRANCH   1  11
ATOM     11  O   UNL     1      -8.386  18.578   5.650  0.00  0.00    +0.000 OA
BRANCH  11  13
ATOM     12  O   UNL     1      -6.901  20.365   5.366  0.00  0.00    +0.000 OA
ATOM     13  C   UNL     1      -7.941  19.783   5.086  0.00  0.00    +0.000 C 
ATOM     14  C   UNL     1      -8.934  20.272   4.073  0.00  0.00    +0.000 C 
ENDBRANCH  11  13
ENDBRANCH   1  11
TORSDOF 4
ENDMDL
MODEL 9
REMARK VINA RESULT:    -4.599      2.036      2.645
REMARK INTER + INTRA:          -6.090
REMARK INTER:                  -5.671
REMARK INTRA:                  -0.418
REMARK UNBOUND:                -0.549
REMARK  Name = 2244
REMARK  5 active torsions:
REMARK  status: ('A' for Active; 'I' for Inactive)
REMARK    1  A    between atoms: O_1  and  C_5
REMARK    2  A    between atoms: O_1  and  C_12
REMARK    3  A    between atoms: O_2  and  C_11
REMARK    4  A    between atoms: C_6  and  C_11
REMARK    5  A    between atoms: C_12  and  C_13
REMARK                            x       y       z     vdW  Elec       q    Type
REMARK                         _______ _______ _______ _____ _____    ______ ____
ROOT
ATOM      1  C   UNL     1       4.779  12.473  10.373  0.00  0.00    +0.000 A 
ATOM      2  C   UNL     1       4.373  12.608  11.701  0.00  0.00    +0.000 A 
ATOM      3  C   UNL     1       6.013  12.980   9.967  0.00  0.00    +0.000 A 
ATOM      4  C   UNL     1       5.202  13.249  12.622  0.00  0.00    +0.000 A 
ATOM      5  C   UNL     1       6.842  13.621  10.887  0.00  0.00    +0.000 A 
ATOM      6  C   UNL     1       6.435  13.756  12.214  0.00  0.00    +0.000 A 
ENDROOT
BRANCH   2   8
ATOM      7  O   UNL     1       2.914  11.233  13.016  0.00  0.00    +0.000 OA
ATOM      8  C   UNL     1       3.089  12.083  12.148  0.00  0.00    +0.000 C 
BRANCH   8   9
ATOM      9  O   UNL     1       2.049  12.651  11.477  0.00  0.00    +0.000 OA
ATOM     10  H   UNL     1       1.196  12.214  11.688  0.00  0.00    +0.000 HD
ENDBRANCH   8   9
ENDBRANCH   2   8
BRANCH   1  11
ATOM     11  O   UNL     1       3.985  11.848   9.459  0.00  0.00    +0.000 OA
BRANCH  11  13
ATOM     12  O   UNL     1       4.600  12.285   7.244  0.00  0.00    +0.000 OA
ATOM     13  C   UNL     1       3.903  12.510   8.225  0.00  0.00    +0.000 C 
ATOM     14  C   UNL     1       2.825  13.551   8.272  0.00  0.00    +0.000 C 
ENDBRANCH  11  13
ENDBRANCH   1  11
TORSDOF 4
ENDMDL
