MODEL 1
REMARK VINA RESULT:    -5.631      0.000      0.000
REMARK INTER + INTRA:          -5.631
REMARK INTER:                  -5.631
REMARK INTRA:                   0.000
REMARK UNBOUND:                 0.000
REMARK  Name = 2519
REMARK  3 active torsions:
REMARK  status: ('A' for Active; 'I' for Inactive)
REMARK    1  A    between atoms: N_3  and  C_12
REMARK    2  A    between atoms: N_4  and  C_13
REMARK    3  A    between atoms: N_5  and  C_14
REMARK                            x       y       z     vdW  Elec       q    Type
REMARK                         _______ _______ _______ _____ _____    ______ ____
ROOT
ATOM      1  O   UNL     1       5.912  12.191   9.753  0.00  0.00    +0.000 OA
ATOM      2  O   UNL     1       1.318  12.815   9.030  0.00  0.00    +0.000 OA
ATOM      3  N   UNL     1       2.015  12.148  11.146  0.00  0.00    +0.000 N 
ATOM      4  N   UNL     1       5.149  11.461  12.552  0.00  0.00    +0.000 N 
ATOM      5  N   UNL     1       3.616  12.510   9.366  0.00  0.00    +0.000 N 
ATOM      6  N   UNL     1       3.039  11.448  13.272  0.00  0.00    +0.000 NA
ATOM      7  C   UNL     1       4.379  11.834  11.488  0.00  0.00    +0.000 A 
ATOM      8  C   UNL     1       3.094  11.819  11.955  0.00  0.00    +0.000 A 
ATOM      9  C   UNL     1       4.751  12.180  10.154  0.00  0.00    +0.000 A 
ATOM     10  C   UNL     1       2.240  12.512   9.796  0.00  0.00    +0.000 A 
ATOM     11  C   UNL     1       4.297  11.239  13.603  0.00  0.00    +0.000 A 
ATOM     12  C   UNL     1       0.659  12.119  11.683  0.00  0.00    +0.000 C 
ATOM     13  C   UNL     1       6.585  11.319  12.592  0.00  0.00    +0.000 C 
ATOM     14  C   UNL     1       3.869  12.883   7.979  0.00  0.00    +0.000 C 
ENDROOT
TORSDOF 0
ENDMDL
MODEL 2
REMARK VINA RESULT:    -5.506      1.543      3.030
REMARK INTER + INTRA:          -5.506
REMARK INTER:                  -5.506
REMARK INTRA:                   0.000
REMARK UNBOUND:                 0.000
REMARK  Name = 2519
REMARK  3 active torsions:
REMARK  status: ('A' for Active; 'I' for Inactive)
REMARK    1  A    between atoms: N_3  and  C_12
REMARK    2  A    between atoms: N_4  and  C_13
REMARK    3  A    between atoms: N_5  and  C_14
REMARK                            x       y       z     vdW  Elec       q    Type
REMARK                         _______ _______ _______ _____ _____    ______ ____
ROOT
ATOM      1  O   UNL     1       2.827  11.530  13.353  0.00  0.00    +0.000 OA
ATOM      2  O   UNL     1       1.415  12.705   9.035  0.00  0.00    +0.000 OA
ATOM      3  N   UNL     1       3.698  12.474   9.418  0.00  0.00    +0.000 N 
ATOM      4  N   UNL     1       5.602  11.649  12.240  0.00  0.00    +0.000 N 
ATOM      5  N   UNL     1       2.096  12.119  11.199  0.00  0.00    +0.000 N 
ATOM      6  N   UNL     1       6.038  12.160  10.115  0.00  0.00    +0.000 NA
ATOM      7  C   UNL     1       4.393  11.871  11.645  0.00  0.00    +0.000 A 
ATOM      8  C   UNL     1       4.689  12.181  10.346  0.00  0.00    +0.000 A 
ATOM      9  C   UNL     1       3.073  11.813  12.184  0.00  0.00    +0.000 A 
ATOM     10  C   UNL     1       2.339  12.453   9.818  0.00  0.00    +0.000 A 
ATOM     11  C   UNL     1       6.561  11.835  11.279  0.00  0.00    +0.000 A 
ATOM     12  C   UNL     1       4.054  12.800   8.042  0.00  0.00    +0.000 C 
ATOM     13  C   UNL     1       5.851  11.287  13.615  0.00  0.00    +0.000 C 
ATOM     14  C   UNL     1       0.702  12.091  11.630  0.00  0.00    +0.000 C 
ENDROOT
TORSDOF 0
ENDMDL
MODEL 3
REMARK VINA RESULT:    -5.455      1.658      4.073
REMARK INTER + INTRA:          -5.455
REMARK INTER:                  -5.455
REMARK INTRA:                   0.000
REMARK UNBOUND:                 0.000
REMARK  Name = 2519
REMARK  3 active torsions:
REMARK  status: ('A' for Active; 'I' for Inactive)
REMARK    1  A    between atoms: N_3  and  C_12
REMARK    2  A    between atoms: N_4  and  C_13
REMARK    3  A    between atoms: N_5  and  C_14
REMARK                            x       y       z     vdW  Elec       q    Type
REMARK                         _______ _______ _______ _____ _____    ______ ____
ROOT
ATOM      1  O   UNL     1       1.392  12.668   9.065  0.00  0.00    +0.000 OA
ATOM      2  O   UNL     1       2.620  11.775  13.504  0.00  0.00    +0.000 OA
ATOM      3  N   UNL     1       4.312  12.021  11.927  0.00  0.00    +0.000 N 
ATOM      4  N   UNL     1       4.328  12.680   8.487  0.00  0.00    +0.000 N 
ATOM      5  N   UNL     1       1.982  12.220  11.295  0.00  0.00    +0.000 N 
ATOM      6  N   UNL     1       5.876  12.328  10.051  0.00  0.00    +0.000 NA
ATOM      7  C   UNL     1       3.651  12.477   9.655  0.00  0.00    +0.000 A 
ATOM      8  C   UNL     1       4.621  12.266  10.595  0.00  0.00    +0.000 A 
ATOM      9  C   UNL     1       2.249  12.473   9.923  0.00  0.00    +0.000 A 
ATOM     10  C   UNL     1       2.955  11.988  12.333  0.00  0.00    +0.000 A 
ATOM     11  C   UNL     1       5.664  12.580   8.776  0.00  0.00    +0.000 A 
ATOM     12  C   UNL     1       5.376  11.799  12.899  0.00  0.00    +0.000 C 
ATOM     13  C   UNL     1       3.769  12.949   7.183  0.00  0.00    +0.000 C 
ATOM     14  C   UNL     1       0.579  12.191  11.694  0.00  0.00    +0.000 C 
ENDROOT
TORSDOF 0
ENDMDL
MODEL 4
REMARK VINA RESULT:    -5.382      1.524      3.540
REMARK INTER + INTRA:          -5.382
REMARK INTER:                  -5.382
REMARK INTRA:                   0.000
REMARK UNBOUND:                 0.000
REMARK  Name = 2519
REMARK  3 active torsions:
REMARK  status: ('A' for Active; 'I' for Inactive)
REMARK    1  A    between atoms: N_3  and  C_12
REMARK    2  A    between atoms: N_4  and  C_13
REMARK    3  A    between atoms: N_5  and  C_14
REMARK                            x       y       z     vdW  Elec       q    Type
REMARK                         _______ _______ _______ _____ _____    ______ ____
ROOT
ATOM      1  O   UNL     1       1.448  12.498   9.243  0.00  0.00    +0.000 OA
ATOM      2  O   UNL     1       6.037  13.470   9.365  0.00  0.00    +0.000 OA
ATOM      3  N   UNL     1       4.875  13.409  11.379  0.00  0.00    +0.000 N 
ATOM      4  N   UNL     1       1.532  12.786  12.220  0.00  0.00    +0.000 N 
ATOM      5  N   UNL     1       3.748  12.983   9.278  0.00  0.00    +0.000 N 
ATOM      6  N   UNL     1       3.394  13.278  13.341  0.00  0.00    +0.000 NA
ATOM      7  C   UNL     1       2.520  12.909  11.285  0.00  0.00    +0.000 A 
ATOM      8  C   UNL     1       3.648  13.209  11.998  0.00  0.00    +0.000 A 
ATOM      9  C   UNL     1       2.471  12.771   9.866  0.00  0.00    +0.000 A 
ATOM     10  C   UNL     1       4.972  13.302   9.969  0.00  0.00    +0.000 A 
ATOM     11  C   UNL     1       2.108  13.018  13.442  0.00  0.00    +0.000 A 
ATOM     12  C   UNL     1       6.055  13.727  12.175  0.00  0.00    +0.000 C 
ATOM     13  C   UNL     1       0.141  12.475  11.993  0.00  0.00    +0.000 C 
ATOM     14  C   UNL     1       3.827  12.868   7.826  0.00  0.00    +0.000 C 
ENDROOT
TORSDOF 0
ENDMDL
MODEL 5
REMARK VINA RESULT:    -5.095      2.168      3.956
REMARK INTER + INTRA:          -5.095
REMARK INTER:                  -5.095
REMARK INTRA:                   0.000
REMARK UNBOUND:                 0.000
REMARK  Name = 2519
REMARK  3 active torsions:
REMARK  status: ('A' for Active; 'I' for Inactive)
REMARK    1  A    between atoms: N_3  and  C_12
REMARK    2  A    between atoms: N_4  and  C_13
REMARK    3  A    between atoms: N_5  and  C_14
REMARK                            x       y       z     vdW  Elec       q    Type
REMARK                         _______ _______ _______ _____ _____    ______ ____
ROOT
ATOM      1  O   UNL     1       4.629  13.432  13.116  0.00  0.00    +0.000 OA
ATOM      2  O   UNL     1       6.837  13.046   8.993  0.00  0.00    +0.000 OA
ATOM      3  N   UNL     1       4.538  12.694   9.044  0.00  0.00    +0.000 N 
ATOM      4  N   UNL     1       2.140  12.769  11.595  0.00  0.00    +0.000 N 
ATOM      5  N   UNL     1       5.757  13.244  11.063  0.00  0.00    +0.000 N 
ATOM      6  N   UNL     1       2.123  12.377   9.401  0.00  0.00    +0.000 NA
ATOM      7  C   UNL     1       3.432  12.897  11.175  0.00  0.00    +0.000 A 
ATOM      8  C   UNL     1       3.394  12.653   9.830  0.00  0.00    +0.000 A 
ATOM      9  C   UNL     1       4.615  13.213  11.908  0.00  0.00    +0.000 A 
ATOM     10  C   UNL     1       5.786  12.996   9.643  0.00  0.00    +0.000 A 
ATOM     11  C   UNL     1       1.389  12.455  10.492  0.00  0.00    +0.000 A 
ATOM     12  C   UNL     1       4.455  12.428   7.613  0.00  0.00    +0.000 C 
ATOM     13  C   UNL     1       1.632  12.928  12.938  0.00  0.00    +0.000 C 
ATOM     14  C   UNL     1       7.033  13.558  11.698  0.00  0.00    +0.000 C 
ENDROOT
TORSDOF 0
ENDMDL
MODEL 6
REMARK VINA RESULT:    -5.034      1.768      4.637
REMARK INTER + INTRA:          -5.034
REMARK INTER:                  -5.034
REMARK INTRA:                   0.000
REMARK UNBOUND:                 0.000
REMARK  Name = 2519
REMARK  3 active torsions:
REMARK  status: ('A' for Active; 'I' for Inactive)
REMARK    1  A    between atoms: N_3  and  C_12
REMARK    2  A    between atoms: N_4  and  C_13
REMARK    3  A    between atoms: N_5  and  C_14
REMARK                            x       y       z     vdW  Elec       q    Type
REMARK                         _______ _______ _______ _____ _____    ______ ____
ROOT
ATOM      1  O   UNL     1       2.870  11.389  13.049  0.00  0.00    +0.000 OA
ATOM      2  O   UNL     1       7.293  11.888  11.566  0.00  0.00    +0.000 OA
ATOM      3  N   UNL     1       5.576  12.482  10.114  0.00  0.00    +0.000 N 
ATOM      4  N   UNL     1       2.082  12.444  10.363  0.00  0.00    +0.000 N 
ATOM      5  N   UNL     1       5.094  11.629  12.329  0.00  0.00    +0.000 N 
ATOM      6  N   UNL     1       3.564  13.025   8.803  0.00  0.00    +0.000 NA
ATOM      7  C   UNL     1       3.315  12.213  10.903  0.00  0.00    +0.000 A 
ATOM      8  C   UNL     1       4.203  12.577   9.928  0.00  0.00    +0.000 A 
ATOM      9  C   UNL     1       3.682  11.708  12.186  0.00  0.00    +0.000 A 
ATOM     10  C   UNL     1       6.081  11.995  11.345  0.00  0.00    +0.000 A 
ATOM     11  C   UNL     1       2.284  12.932   9.098  0.00  0.00    +0.000 A 
ATOM     12  C   UNL     1       6.490  12.880   9.050  0.00  0.00    +0.000 C 
ATOM     13  C   UNL     1       0.796  12.226  10.983  0.00  0.00    +0.000 C 
ATOM     14  C   UNL     1       5.595  11.127  13.604  0.00  0.00    +0.000 C 
ENDROOT
TORSDOF 0
ENDMDL
MODEL 7
REMARK VINA RESULT:    -4.799      2.137      3.538
REMARK INTER + INTRA:          -4.799
REMARK INTER:                  -4.799
REMARK INTRA:                   0.000
REMARK UNBOUND:                 0.000
REMARK  Name = 2519
REMARK  3 active torsions:
REMARK  status: ('A' for Active; 'I' for Inactive)
REMARK    1  A    between atoms: N_3  and  C_12
REMARK    2  A    between atoms: N_4  and  C_13
REMARK    3  A    between atoms: N_5  and  C_14
REMARK                            x       y       z     vdW  Elec       q    Type
REMARK                         _______ _______ _______ _____ _____    ______ ____
ROOT
ATOM      1  O   UNL     1       6.062  13.796  12.364  0.00  0.00    +0.000 OA
ATOM      2  O   UNL     1       1.572  13.032  13.492  0.00  0.00    +0.000 OA
ATOM      3  N   UNL     1       2.225  12.678  11.287  0.00  0.00    +0.000 N 
ATOM      4  N   UNL     1       5.275  12.986   9.593  0.00  0.00    +0.000 N 
ATOM      5  N   UNL     1       3.819  13.420  12.953  0.00  0.00    +0.000 N 
ATOM      6  N   UNL     1       3.199  12.389   9.045  0.00  0.00    +0.000 NA
ATOM      7  C   UNL     1       4.536  13.080  10.737  0.00  0.00    +0.000 A 
ATOM      8  C   UNL     1       3.271  12.708  10.375  0.00  0.00    +0.000 A 
ATOM      9  C   UNL     1       4.919  13.468  12.056  0.00  0.00    +0.000 A 
ATOM     10  C   UNL     1       2.465  13.040  12.636  0.00  0.00    +0.000 A 
ATOM     11  C   UNL     1       4.426  12.567   8.602  0.00  0.00    +0.000 A 
ATOM     12  C   UNL     1       0.890  12.276  10.861  0.00  0.00    +0.000 C 
ATOM     13  C   UNL     1       6.682  13.269   9.429  0.00  0.00    +0.000 C 
ATOM     14  C   UNL     1       4.086  13.795  14.337  0.00  0.00    +0.000 C 
ENDROOT
TORSDOF 0
ENDMDL
MODEL 8
REMARK VINA RESULT:    -4.782      2.715      4.031
REMARK INTER + INTRA:          -4.782
REMARK INTER:                  -4.782
REMARK INTRA:                   0.000
REMARK UNBOUND:                 0.000
REMARK  Name = 2519
REMARK  3 active torsions:
REMARK  status: ('A' for Active; 'I' for Inactive)
REMARK    1  A    between atoms: N_3  and  C_12
REMARK    2  A    between atoms: N_4  and  C_13
REMARK    3  A    between atoms: N_5  and  C_14
REMARK                            x       y       z     vdW  Elec       q    Type
REMARK                         _______ _______ _______ _____ _____    ______ ____
ROOT
ATOM      1  O   UNL     1       4.645  12.312   7.160  0.00  0.00    +0.000 OA
ATOM      2  O   UNL     1       3.311  13.870  11.380  0.00  0.00    +0.000 OA
ATOM      3  N   UNL     1       5.556  13.352  11.062  0.00  0.00    +0.000 N 
ATOM      4  N   UNL     1       7.395  12.160   8.329  0.00  0.00    +0.000 N 
ATOM      5  N   UNL     1       3.953  13.094   9.265  0.00  0.00    +0.000 N 
ATOM      6  N   UNL     1       7.854  12.728  10.435  0.00  0.00    +0.000 NA
ATOM      7  C   UNL     1       6.212  12.552   8.885  0.00  0.00    +0.000 A 
ATOM      8  C   UNL     1       6.520  12.895  10.172  0.00  0.00    +0.000 A 
ATOM      9  C   UNL     1       4.903  12.622   8.320  0.00  0.00    +0.000 A 
ATOM     10  C   UNL     1       4.211  13.470  10.632  0.00  0.00    +0.000 A 
ATOM     11  C   UNL     1       8.354  12.282   9.302  0.00  0.00    +0.000 A 
ATOM     12  C   UNL     1       5.926  13.707  12.427  0.00  0.00    +0.000 C 
ATOM     13  C   UNL     1       7.623  11.698   6.980  0.00  0.00    +0.000 C 
ATOM     14  C   UNL     1       2.573  13.209   8.804  0.00  0.00    +0.000 C 
ENDROOT
TORSDOF 0
ENDMDL
MODEL 9
REMARK VINA RESULT:    -4.746      2.216      3.087
REMARK INTER + INTRA:          -4.746
REMARK INTER:                  -4.746
REMARK INTRA:                   0.000
REMARK UNBOUND:                 0.000
REMARK  Name = 2519
REMARK  3 active torsions:
REMARK  status: ('A' for Active; 'I' for Inactive)
REMARK    1  A    between atoms: N_3  and  C_12
REMARK    2  A    between atoms: N_4  and  C_13
REMARK    3  A    between atoms: N_5  and  C_14
REMARK                            x       y       z     vdW  Elec       q    Type
REMARK                         _______ _______ _______ _____ _____    ______ ____
ROOT
ATOM      1  O   UNL     1       3.546  11.832   9.174  0.00  0.00    +0.000 OA
ATOM      2  O   UNL     1       1.237  12.982  13.093  0.00  0.00    +0.000 OA
ATOM      3  N   UNL     1       3.511  13.457  12.980  0.00  0.00    +0.000 N 
ATOM      4  N   UNL     1       5.961  12.967  10.526  0.00  0.00    +0.000 N 
ATOM      5  N   UNL     1       2.368  12.398  11.126  0.00  0.00    +0.000 N 
ATOM      6  N   UNL     1       5.910  13.837  12.577  0.00  0.00    +0.000 NA
ATOM      7  C   UNL     1       4.671  12.854  10.956  0.00  0.00    +0.000 A 
ATOM      8  C   UNL     1       4.667  13.394  12.213  0.00  0.00    +0.000 A 
ATOM      9  C   UNL     1       3.524  12.310  10.305  0.00  0.00    +0.000 A 
ATOM     10  C   UNL     1       2.296  12.952  12.455  0.00  0.00    +0.000 A 
ATOM     11  C   UNL     1       6.669  13.565  11.537  0.00  0.00    +0.000 A 
ATOM     12  C   UNL     1       3.548  14.040  14.316  0.00  0.00    +0.000 C 
ATOM     13  C   UNL     1       6.505  12.547   9.256  0.00  0.00    +0.000 C 
ATOM     14  C   UNL     1       1.126  11.873  10.568  0.00  0.00    +0.000 C 
ENDROOT
TORSDOF 0
ENDMDL
