MODEL 1
REMARK VINA RESULT:    -7.209      0.000      0.000
REMARK INTER + INTRA:         -11.673
REMARK INTER:                 -11.001
REMARK INTRA:                  -0.672
REMARK UNBOUND:                -0.672
REMARK  Name = 969516
REMARK  12 active torsions:
REMARK  status: ('A' for Active; 'I' for Inactive)
REMARK    1  A    between atoms: O_1  and  C_12
REMARK    2  A    between atoms: O_1  and  C_26
REMARK    3  A    between atoms: O_2  and  C_13
REMARK    4  A    between atoms: O_2  and  C_27
REMARK    5  A    between atoms: O_3  and  C_18
REMARK    6  A    between atoms: O_4  and  C_19
REMARK    7  A    between atoms: C_7  and  C_16
REMARK    8  A    between atoms: C_8  and  C_17
REMARK    9  A    between atoms: C_9  and  C_20
REMARK   10  A    between atoms: C_9  and  C_21
REMARK   11  A    between atoms: C_20  and  C_24
REMARK   12  A    between atoms: C_21  and  C_25
REMARK                            x       y       z     vdW  Elec       q    Type
REMARK                         _______ _______ _______ _____ _____    ______ ____
ROOT
ATOM      1  C   UNL     1       2.688  18.606  14.408  0.00  0.00    +0.000 C 
ENDROOT
BRANCH   1   3
ATOM      2  O   UNL     1       4.612  20.037  14.648  0.00  0.00    +0.000 OA
ATOM      3  C   UNL     1       3.719  19.606  13.924  0.00  0.00    +0.000 C 
BRANCH   3   5
ATOM      4  C   UNL     1       3.450  21.292  12.153  0.00  0.00    +0.000 C 
ATOM      5  C   UNL     1       3.611  20.004  12.489  0.00  0.00    +0.000 C 
BRANCH   4   6
ATOM      6  C   UNL     1       3.323  21.786  10.770  0.00  0.00    +0.000 A 
ATOM      7  C   UNL     1       2.073  21.809  10.171  0.00  0.00    +0.000 A 
ATOM      8  C   UNL     1       1.953  22.277   8.862  0.00  0.00    +0.000 A 
ATOM      9  C   UNL     1       4.454  22.217  10.097  0.00  0.00    +0.000 A 
ATOM     10  C   UNL     1       3.083  22.713   8.171  0.00  0.00    +0.000 A 
ATOM     11  C   UNL     1       4.333  22.684   8.788  0.00  0.00    +0.000 A 
BRANCH   8  12
ATOM     12  O   UNL     1       0.727  22.301   8.270  0.00  0.00    +0.000 OA
ATOM     13  C   UNL     1      -0.147  23.369   8.629  0.00  0.00    +0.000 C 
ENDBRANCH   8  12
BRANCH  10  14
ATOM     14  O   UNL     1       2.977  23.173   6.893  0.00  0.00    +0.000 OA
ATOM     15  H   UNL     1       3.752  22.866   6.392  0.00  0.00    +0.000 HD
ENDBRANCH  10  14
ENDBRANCH   4   6
ENDBRANCH   3   5
ENDBRANCH   1   3
BRANCH   1  17
ATOM     16  O   UNL     1       4.018  16.789  15.270  0.00  0.00    +0.000 OA
ATOM     17  C   UNL     1       3.161  17.166  14.475  0.00  0.00    +0.000 C 
BRANCH  17  19
ATOM     18  C   UNL     1       2.791  14.913  13.560  0.00  0.00    +0.000 C 
ATOM     19  C   UNL     1       2.486  16.218  13.540  0.00  0.00    +0.000 C 
BRANCH  18  20
ATOM     20  C   UNL     1       2.192  13.900  12.674  0.00  0.00    +0.000 A 
ATOM     21  C   UNL     1       2.967  13.320  11.683  0.00  0.00    +0.000 A 
ATOM     22  C   UNL     1       2.398  12.361  10.844  0.00  0.00    +0.000 A 
ATOM     23  C   UNL     1       0.863  13.546  12.850  0.00  0.00    +0.000 A 
ATOM     24  C   UNL     1       1.063  11.995  11.009  0.00  0.00    +0.000 A 
ATOM     25  C   UNL     1       0.295  12.588  12.011  0.00  0.00    +0.000 A 
BRANCH  22  26
ATOM     26  O   UNL     1       3.158  11.789   9.869  0.00  0.00    +0.000 OA
ATOM     27  C   UNL     1       3.737  12.662   8.901  0.00  0.00    +0.000 C 
ENDBRANCH  22  26
BRANCH  24  28
ATOM     28  O   UNL     1       0.496  11.058  10.198  0.00  0.00    +0.000 OA
ATOM     29  H   UNL     1       0.810  11.196   9.288  0.00  0.00    +0.000 HD
ENDBRANCH  24  28
ENDBRANCH  18  20
ENDBRANCH  17  19
ENDBRANCH   1  17
TORSDOF 10
ENDMDL
MODEL 2
REMARK VINA RESULT:    -7.089      8.791     12.201
REMARK INTER + INTRA:         -11.490
REMARK INTER:                 -10.511
REMARK INTRA:                  -0.979
REMARK UNBOUND:                -0.672
REMARK  Name = 969516
REMARK  12 active torsions:
REMARK  status: ('A' for Active; 'I' for Inactive)
REMARK    1  A    between atoms: O_1  and  C_12
REMARK    2  A    between atoms: O_1  and  C_26
REMARK    3  A    between atoms: O_2  and  C_13
REMARK    4  A    between atoms: O_2  and  C_27
REMARK    5  A    between atoms: O_3  and  C_18
REMARK    6  A    between atoms: O_4  and  C_19
REMARK    7  A    between atoms: C_7  and  C_16
REMARK    8  A    between atoms: C_8  and  C_17
REMARK    9  A    between atoms: C_9  and  C_20
REMARK   10  A    between atoms: C_9  and  C_21
REMARK   11  A    between atoms: C_20  and  C_24
REMARK   12  A    between atoms: C_21  and  C_25
REMARK                            x       y       z     vdW  Elec       q    Type
REMARK                         _______ _______ _______ _____ _____    ______ ____
ROOT
ATOM      1  C   UNL     1      -9.504  21.523   3.459  0.00  0.00    +0.000 C 
ENDROOT
BRANCH   1   3
ATOM      2  O   UNL     1      -9.359  22.843   5.470  0.00  0.00    +0.000 OA
ATOM      3  C   UNL     1      -8.856  22.522   4.397  0.00  0.00    +0.000 C 
BRANCH   3   5
ATOM      4  C   UNL     1      -6.523  23.169   4.826  0.00  0.00    +0.000 C 
ATOM      5  C   UNL     1      -7.536  23.062   3.956  0.00  0.00    +0.000 C 
BRANCH   4   6
ATOM      6  C   UNL     1      -5.187  23.698   4.495  0.00  0.00    +0.000 A 
ATOM      7  C   UNL     1      -4.067  23.120   5.070  0.00  0.00    +0.000 A 
ATOM      8  C   UNL     1      -2.804  23.621   4.757  0.00  0.00    +0.000 A 
ATOM      9  C   UNL     1      -5.079  24.764   3.617  0.00  0.00    +0.000 A 
ATOM     10  C   UNL     1      -2.678  24.694   3.875  0.00  0.00    +0.000 A 
ATOM     11  C   UNL     1      -3.815  25.265   3.304  0.00  0.00    +0.000 A 
BRANCH   8  12
ATOM     12  O   UNL     1      -1.700  23.055   5.321  0.00  0.00    +0.000 OA
ATOM     13  C   UNL     1      -1.362  23.467   6.643  0.00  0.00    +0.000 C 
ENDBRANCH   8  12
BRANCH  10  14
ATOM     14  O   UNL     1      -1.449  25.191   3.561  0.00  0.00    +0.000 OA
ATOM     15  H   UNL     1      -0.775  24.638   3.992  0.00  0.00    +0.000 HD
ENDBRANCH  10  14
ENDBRANCH   4   6
ENDBRANCH   3   5
ENDBRANCH   1   3
BRANCH   1  17
ATOM     16  O   UNL     1      -8.787  19.544   2.284  0.00  0.00    +0.000 OA
ATOM     17  C   UNL     1      -8.784  20.195   3.326  0.00  0.00    +0.000 C 
BRANCH  17  19
ATOM     18  C   UNL     1      -8.592  18.912   5.416  0.00  0.00    +0.000 C 
ATOM     19  C   UNL     1      -8.027  19.745   4.531  0.00  0.00    +0.000 C 
BRANCH  18  20
ATOM     20  C   UNL     1      -7.935  18.419   6.639  0.00  0.00    +0.000 A 
ATOM     21  C   UNL     1      -8.062  19.138   7.816  0.00  0.00    +0.000 A 
ATOM     22  C   UNL     1      -7.439  18.671   8.973  0.00  0.00    +0.000 A 
ATOM     23  C   UNL     1      -7.201  17.244   6.587  0.00  0.00    +0.000 A 
ATOM     24  C   UNL     1      -6.697  17.491   8.937  0.00  0.00    +0.000 A 
ATOM     25  C   UNL     1      -6.577  16.777   7.744  0.00  0.00    +0.000 A 
BRANCH  22  26
ATOM     26  O   UNL     1      -7.564  19.375  10.132  0.00  0.00    +0.000 OA
ATOM     27  C   UNL     1      -8.879  19.512  10.670  0.00  0.00    +0.000 C 
ENDBRANCH  22  26
BRANCH  24  28
ATOM     28  O   UNL     1      -6.086  17.022  10.061  0.00  0.00    +0.000 OA
ATOM     29  H   UNL     1      -5.224  17.461  10.159  0.00  0.00    +0.000 HD
ENDBRANCH  24  28
ENDBRANCH  18  20
ENDBRANCH  17  19
ENDBRANCH   1  17
TORSDOF 10
ENDMDL
MODEL 3
REMARK VINA RESULT:    -7.023      8.713     13.915
REMARK INTER + INTRA:         -11.389
REMARK INTER:                 -10.454
REMARK INTRA:                  -0.935
REMARK UNBOUND:                -0.672
REMARK  Name = 969516
REMARK  12 active torsions:
REMARK  status: ('A' for Active; 'I' for Inactive)
REMARK    1  A    between atoms: O_1  and  C_12
REMARK    2  A    between atoms: O_1  and  C_26
REMARK    3  A    between atoms: O_2  and  C_13
REMARK    4  A    between atoms: O_2  and  C_27
REMARK    5  A    between atoms: O_3  and  C_18
REMARK    6  A    between atoms: O_4  and  C_19
REMARK    7  A    between atoms: C_7  and  C_16
REMARK    8  A    between atoms: C_8  and  C_17
REMARK    9  A    between atoms: C_9  and  C_20
REMARK   10  A    between atoms: C_9  and  C_21
REMARK   11  A    between atoms: C_20  and  C_24
REMARK   12  A    between atoms: C_21  and  C_25
REMARK                            x       y       z     vdW  Elec       q    Type
REMARK                         _______ _______ _______ _____ _____    ______ ____
ROOT
ATOM      1  C   UNL     1      -9.079  21.899   3.105  0.00  0.00    +0.000 C 
ENDROOT
BRANCH   1   3
ATOM      2  O   UNL     1      -8.781  19.637   2.330  0.00  0.00    +0.000 OA
ATOM      3  C   UNL     1      -8.650  20.452   3.239  0.00  0.00    +0.000 C 
BRANCH   3   5
ATOM      4  C   UNL     1      -8.351  18.949   5.162  0.00  0.00    +0.000 C 
ATOM      5  C   UNL     1      -8.010  20.084   4.537  0.00  0.00    +0.000 C 
BRANCH   4   6
ATOM      6  C   UNL     1      -7.787  18.501   6.449  0.00  0.00    +0.000 A 
ATOM      7  C   UNL     1      -7.807  19.362   7.535  0.00  0.00    +0.000 A 
ATOM      8  C   UNL     1      -7.274  18.938   8.752  0.00  0.00    +0.000 A 
ATOM      9  C   UNL     1      -7.249  17.229   6.547  0.00  0.00    +0.000 A 
ATOM     10  C   UNL     1      -6.727  17.660   8.866  0.00  0.00    +0.000 A 
ATOM     11  C   UNL     1      -6.715  16.805   7.764  0.00  0.00    +0.000 A 
BRANCH   8  12
ATOM     12  O   UNL     1      -7.292  19.782   9.821  0.00  0.00    +0.000 OA
ATOM     13  C   UNL     1      -6.435  20.921   9.763  0.00  0.00    +0.000 C 
ENDBRANCH   8  12
BRANCH  10  14
ATOM     14  O   UNL     1      -6.204  17.234  10.050  0.00  0.00    +0.000 OA
ATOM     15  H   UNL     1      -6.179  17.989  10.662  0.00  0.00    +0.000 HD
ENDBRANCH  10  14
ENDBRANCH   4   6
ENDBRANCH   3   5
ENDBRANCH   1   3
BRANCH   1  17
ATOM     16  O   UNL     1      -9.112  23.089   5.202  0.00  0.00    +0.000 OA
ATOM     17  C   UNL     1      -8.521  22.842   4.153  0.00  0.00    +0.000 C 
BRANCH  17  19
ATOM     18  C   UNL     1      -6.137  23.175   4.664  0.00  0.00    +0.000 C 
ATOM     19  C   UNL     1      -7.177  23.421   3.855  0.00  0.00    +0.000 C 
BRANCH  18  20
ATOM     20  C   UNL     1      -4.777  23.706   4.464  0.00  0.00    +0.000 A 
ATOM     21  C   UNL     1      -3.715  23.122   5.135  0.00  0.00    +0.000 A 
ATOM     22  C   UNL     1      -2.428  23.626   4.947  0.00  0.00    +0.000 A 
ATOM     23  C   UNL     1      -4.588  24.780   3.609  0.00  0.00    +0.000 A 
ATOM     24  C   UNL     1      -2.221  24.706   4.090  0.00  0.00    +0.000 A 
ATOM     25  C   UNL     1      -3.301  25.283   3.421  0.00  0.00    +0.000 A 
BRANCH  22  26
ATOM     26  O   UNL     1      -1.382  23.053   5.604  0.00  0.00    +0.000 OA
ATOM     27  C   UNL     1      -1.200  23.413   6.973  0.00  0.00    +0.000 C 
ENDBRANCH  22  26
BRANCH  24  28
ATOM     28  O   UNL     1      -0.969  25.206   3.895  0.00  0.00    +0.000 OA
ATOM     29  H   UNL     1      -0.371  24.830   4.563  0.00  0.00    +0.000 HD
ENDBRANCH  24  28
ENDBRANCH  18  20
ENDBRANCH  17  19
ENDBRANCH   1  17
TORSDOF 10
ENDMDL
MODEL 4
REMARK VINA RESULT:    -6.937      9.361     12.241
REMARK INTER + INTRA:         -11.258
REMARK INTER:                  -9.917
REMARK INTRA:                  -1.341
REMARK UNBOUND:                -0.672
REMARK  Name = 969516
REMARK  12 active torsions:
REMARK  status: ('A' for Active; 'I' for Inactive)
REMARK    1  A    between atoms: O_1  and  C_12
REMARK    2  A    between atoms: O_1  and  C_26
REMARK    3  A    between atoms: O_2  and  C_13
REMARK    4  A    between atoms: O_2  and  C_27
REMARK    5  A    between atoms: O_3  and  C_18
REMARK    6  A    between atoms: O_4  and  C_19
REMARK    7  A    between atoms: C_7  and  C_16
REMARK    8  A    between atoms: C_8  and  C_17
REMARK    9  A    between atoms: C_9  and  C_20
REMARK   10  A    between atoms: C_9  and  C_21
REMARK   11  A    between atoms: C_20  and  C_24
REMARK   12  A    between atoms: C_21  and  C_25
REMARK                            x       y       z     vdW  Elec       q    Type
REMARK                         _______ _______ _______ _____ _____    ______ ____
ROOT
ATOM      1  C   UNL     1      -9.402  22.083   3.670  0.00  0.00    +0.000 C 
ENDROOT
BRANCH   1   3
ATOM      2  O   UNL     1      -8.560  22.984   1.600  0.00  0.00    +0.000 OA
ATOM      3  C   UNL     1      -8.392  22.809   2.804  0.00  0.00    +0.000 C 
BRANCH   3   5
ATOM      4  C   UNL     1      -6.680  22.688   4.565  0.00  0.00    +0.000 C 
ATOM      5  C   UNL     1      -7.193  23.344   3.516  0.00  0.00    +0.000 C 
BRANCH   4   6
ATOM      6  C   UNL     1      -5.509  23.136   5.341  0.00  0.00    +0.000 A 
ATOM      7  C   UNL     1      -4.262  23.154   4.737  0.00  0.00    +0.000 A 
ATOM      8  C   UNL     1      -3.155  23.578   5.473  0.00  0.00    +0.000 A 
ATOM      9  C   UNL     1      -5.679  23.527   6.658  0.00  0.00    +0.000 A 
ATOM     10  C   UNL     1      -3.310  23.975   6.800  0.00  0.00    +0.000 A 
ATOM     11  C   UNL     1      -4.571  23.951   7.394  0.00  0.00    +0.000 A 
BRANCH   8  12
ATOM     12  O   UNL     1      -1.927  23.598   4.882  0.00  0.00    +0.000 OA
ATOM     13  C   UNL     1      -1.573  24.776   4.160  0.00  0.00    +0.000 C 
ENDBRANCH   8  12
BRANCH  10  14
ATOM     14  O   UNL     1      -2.236  24.392   7.527  0.00  0.00    +0.000 OA
ATOM     15  H   UNL     1      -1.794  23.608   7.898  0.00  0.00    +0.000 HD
ENDBRANCH  10  14
ENDBRANCH   4   6
ENDBRANCH   3   5
ENDBRANCH   1   3
BRANCH   1  17
ATOM     16  O   UNL     1     -10.095  20.081   2.519  0.00  0.00    +0.000 OA
ATOM     17  C   UNL     1      -9.482  20.584   3.457  0.00  0.00    +0.000 C 
BRANCH  17  19
ATOM     18  C   UNL     1      -8.812  19.999   5.751  0.00  0.00    +0.000 C 
ATOM     19  C   UNL     1      -8.726  19.748   4.437  0.00  0.00    +0.000 C 
BRANCH  18  20
ATOM     20  C   UNL     1      -8.100  19.243   6.796  0.00  0.00    +0.000 A 
ATOM     21  C   UNL     1      -7.536  18.017   6.481  0.00  0.00    +0.000 A 
ATOM     22  C   UNL     1      -6.863  17.301   7.471  0.00  0.00    +0.000 A 
ATOM     23  C   UNL     1      -8.010  19.772   8.073  0.00  0.00    +0.000 A 
ATOM     24  C   UNL     1      -6.763  17.820   8.762  0.00  0.00    +0.000 A 
ATOM     25  C   UNL     1      -7.337  19.056   9.063  0.00  0.00    +0.000 A 
BRANCH  22  26
ATOM     26  O   UNL     1      -6.306  16.096   7.165  0.00  0.00    +0.000 OA
ATOM     27  C   UNL     1      -6.901  15.358   6.099  0.00  0.00    +0.000 C 
ENDBRANCH  22  26
BRANCH  24  28
ATOM     28  O   UNL     1      -6.107  17.132   9.737  0.00  0.00    +0.000 OA
ATOM     29  H   UNL     1      -6.133  17.647  10.561  0.00  0.00    +0.000 HD
ENDBRANCH  24  28
ENDBRANCH  18  20
ENDBRANCH  17  19
ENDBRANCH   1  17
TORSDOF 10
ENDMDL
MODEL 5
REMARK VINA RESULT:    -6.933     11.472     15.102
REMARK INTER + INTRA:         -11.252
REMARK INTER:                  -9.357
REMARK INTRA:                  -1.895
REMARK UNBOUND:                -0.672
REMARK  Name = 969516
REMARK  12 active torsions:
REMARK  status: ('A' for Active; 'I' for Inactive)
REMARK    1  A    between atoms: O_1  and  C_12
REMARK    2  A    between atoms: O_1  and  C_26
REMARK    3  A    between atoms: O_2  and  C_13
REMARK    4  A    between atoms: O_2  and  C_27
REMARK    5  A    between atoms: O_3  and  C_18
REMARK    6  A    between atoms: O_4  and  C_19
REMARK    7  A    between atoms: C_7  and  C_16
REMARK    8  A    between atoms: C_8  and  C_17
REMARK    9  A    between atoms: C_9  and  C_20
REMARK   10  A    between atoms: C_9  and  C_21
REMARK   11  A    between atoms: C_20  and  C_24
REMARK   12  A    between atoms: C_21  and  C_25
REMARK                            x       y       z     vdW  Elec       q    Type
REMARK                         _______ _______ _______ _____ _____    ______ ____
ROOT
ATOM      1  C   UNL     1      -9.793  21.342   3.586  0.00  0.00    +0.000 C 
ENDROOT
BRANCH   1   3
ATOM      2  O   UNL     1      -8.717  19.575   2.350  0.00  0.00    +0.000 OA
ATOM      3  C   UNL     1      -8.866  20.153   3.423  0.00  0.00    +0.000 C 
BRANCH   3   5
ATOM      4  C   UNL     1      -8.515  18.720   5.391  0.00  0.00    +0.000 C 
ATOM      5  C   UNL     1      -8.104  19.754   4.644  0.00  0.00    +0.000 C 
BRANCH   4   6
ATOM      6  C   UNL     1      -7.841  18.254   6.617  0.00  0.00    +0.000 A 
ATOM      7  C   UNL     1      -8.092  18.902   7.816  0.00  0.00    +0.000 A 
ATOM      8  C   UNL     1      -7.455  18.461   8.976  0.00  0.00    +0.000 A 
ATOM      9  C   UNL     1      -6.971  17.180   6.545  0.00  0.00    +0.000 A 
ATOM     10  C   UNL     1      -6.575  17.381   8.920  0.00  0.00    +0.000 A 
ATOM     11  C   UNL     1      -6.333  16.739   7.705  0.00  0.00    +0.000 A 
BRANCH   8  12
ATOM     12  O   UNL     1      -7.699  19.095  10.157  0.00  0.00    +0.000 OA
ATOM     13  C   UNL     1      -7.490  20.505  10.192  0.00  0.00    +0.000 C 
ENDBRANCH   8  12
BRANCH  10  14
ATOM     14  O   UNL     1      -5.947  16.940  10.046  0.00  0.00    +0.000 OA
ATOM     15  H   UNL     1      -5.007  16.804   9.839  0.00  0.00    +0.000 HD
ENDBRANCH  10  14
ENDBRANCH   4   6
ENDBRANCH   3   5
ENDBRANCH   1   3
BRANCH   1  17
ATOM     16  O   UNL     1     -12.069  21.229   2.800  0.00  0.00    +0.000 OA
ATOM     17  C   UNL     1     -11.267  21.005   3.703  0.00  0.00    +0.000 C 
BRANCH  17  19
ATOM     18  C   UNL     1     -11.314  20.844   6.157  0.00  0.00    +0.000 C 
ATOM     19  C   UNL     1     -11.681  20.337   4.972  0.00  0.00    +0.000 C 
BRANCH  18  20
ATOM     20  C   UNL     1     -11.661  20.256   7.463  0.00  0.00    +0.000 A 
ATOM     21  C   UNL     1     -12.700  19.345   7.543  0.00  0.00    +0.000 A 
ATOM     22  C   UNL     1     -13.029  18.789   8.779  0.00  0.00    +0.000 A 
ATOM     23  C   UNL     1     -10.939  20.629   8.587  0.00  0.00    +0.000 A 
ATOM     24  C   UNL     1     -12.312  19.153   9.919  0.00  0.00    +0.000 A 
ATOM     25  C   UNL     1     -11.268  20.073   9.823  0.00  0.00    +0.000 A 
BRANCH  22  26
ATOM     26  O   UNL     1     -14.049  17.891   8.861  0.00  0.00    +0.000 OA
ATOM     27  C   UNL     1     -15.375  18.417   8.904  0.00  0.00    +0.000 C 
ENDBRANCH  22  26
BRANCH  24  28
ATOM     28  O   UNL     1     -12.621  18.616  11.133  0.00  0.00    +0.000 OA
ATOM     29  H   UNL     1     -12.458  17.658  11.106  0.00  0.00    +0.000 HD
ENDBRANCH  24  28
ENDBRANCH  18  20
ENDBRANCH  17  19
ENDBRANCH   1  17
TORSDOF 10
ENDMDL
MODEL 6
REMARK VINA RESULT:    -6.849     12.245     15.262
REMARK INTER + INTRA:         -11.125
REMARK INTER:                  -9.395
REMARK INTRA:                  -1.729
REMARK UNBOUND:                -0.672
REMARK  Name = 969516
REMARK  12 active torsions:
REMARK  status: ('A' for Active; 'I' for Inactive)
REMARK    1  A    between atoms: O_1  and  C_12
REMARK    2  A    between atoms: O_1  and  C_26
REMARK    3  A    between atoms: O_2  and  C_13
REMARK    4  A    between atoms: O_2  and  C_27
REMARK    5  A    between atoms: O_3  and  C_18
REMARK    6  A    between atoms: O_4  and  C_19
REMARK    7  A    between atoms: C_7  and  C_16
REMARK    8  A    between atoms: C_8  and  C_17
REMARK    9  A    between atoms: C_9  and  C_20
REMARK   10  A    between atoms: C_9  and  C_21
REMARK   11  A    between atoms: C_20  and  C_24
REMARK   12  A    between atoms: C_21  and  C_25
REMARK                            x       y       z     vdW  Elec       q    Type
REMARK                         _______ _______ _______ _____ _____    ______ ____
ROOT
ATOM      1  C   UNL     1     -11.931  21.199   5.895  0.00  0.00    +0.000 C 
ENDROOT
BRANCH   1   3
ATOM      2  O   UNL     1     -11.437  19.979   3.876  0.00  0.00    +0.000 OA
ATOM      3  C   UNL     1     -11.250  20.115   5.082  0.00  0.00    +0.000 C 
BRANCH   3   5
ATOM      4  C   UNL     1      -9.545  19.757   6.817  0.00  0.00    +0.000 C 
ATOM      5  C   UNL     1     -10.295  19.246   5.831  0.00  0.00    +0.000 C 
BRANCH   4   6
ATOM      6  C   UNL     1      -8.567  18.988   7.608  0.00  0.00    +0.000 A 
ATOM      7  C   UNL     1      -7.773  18.045   6.975  0.00  0.00    +0.000 A 
ATOM      8  C   UNL     1      -6.848  17.318   7.725  0.00  0.00    +0.000 A 
ATOM      9  C   UNL     1      -8.462  19.223   8.969  0.00  0.00    +0.000 A 
ATOM     10  C   UNL     1      -6.731  17.542   9.096  0.00  0.00    +0.000 A 
ATOM     11  C   UNL     1      -7.537  18.495   9.719  0.00  0.00    +0.000 A 
BRANCH   8  12
ATOM     12  O   UNL     1      -6.066  16.390   7.105  0.00  0.00    +0.000 OA
ATOM     13  C   UNL     1      -6.697  15.548   6.143  0.00  0.00    +0.000 C 
ENDBRANCH   8  12
BRANCH  10  14
ATOM     14  O   UNL     1      -5.831  16.839   9.838  0.00  0.00    +0.000 OA
ATOM     15  H   UNL     1      -5.486  17.423  10.535  0.00  0.00    +0.000 HD
ENDBRANCH  10  14
ENDBRANCH   4   6
ENDBRANCH   3   5
ENDBRANCH   1   3
BRANCH   1  17
ATOM     16  O   UNL     1     -14.338  21.291   5.979  0.00  0.00    +0.000 OA
ATOM     17  C   UNL     1     -13.296  20.837   6.445  0.00  0.00    +0.000 C 
BRANCH  17  19
ATOM     18  C   UNL     1     -12.648  20.115   8.706  0.00  0.00    +0.000 C 
ATOM     19  C   UNL     1     -13.303  19.852   7.567  0.00  0.00    +0.000 C 
BRANCH  18  20
ATOM     20  C   UNL     1     -12.585  19.208   9.865  0.00  0.00    +0.000 A 
ATOM     21  C   UNL     1     -13.518  18.192   9.983  0.00  0.00    +0.000 A 
ATOM     22  C   UNL     1     -13.458  17.333  11.081  0.00  0.00    +0.000 A 
ATOM     23  C   UNL     1     -11.592  19.390  10.814  0.00  0.00    +0.000 A 
ATOM     24  C   UNL     1     -12.465  17.503  12.045  0.00  0.00    +0.000 A 
ATOM     25  C   UNL     1     -11.532  18.531  11.912  0.00  0.00    +0.000 A 
BRANCH  22  26
ATOM     26  O   UNL     1     -14.374  16.332  11.200  0.00  0.00    +0.000 OA
ATOM     27  C   UNL     1     -15.598  16.484  10.482  0.00  0.00    +0.000 C 
ENDBRANCH  22  26
BRANCH  24  28
ATOM     28  O   UNL     1     -12.394  16.670  13.121  0.00  0.00    +0.000 OA
ATOM     29  H   UNL     1     -13.106  16.896  13.744  0.00  0.00    +0.000 HD
ENDBRANCH  24  28
ENDBRANCH  18  20
ENDBRANCH  17  19
ENDBRANCH   1  17
TORSDOF 10
ENDMDL
MODEL 7
REMARK VINA RESULT:    -6.833      9.730     14.435
REMARK INTER + INTRA:         -11.100
REMARK INTER:                  -9.329
REMARK INTRA:                  -1.772
REMARK UNBOUND:                -0.672
REMARK  Name = 969516
REMARK  12 active torsions:
REMARK  status: ('A' for Active; 'I' for Inactive)
REMARK    1  A    between atoms: O_1  and  C_12
REMARK    2  A    between atoms: O_1  and  C_26
REMARK    3  A    between atoms: O_2  and  C_13
REMARK    4  A    between atoms: O_2  and  C_27
REMARK    5  A    between atoms: O_3  and  C_18
REMARK    6  A    between atoms: O_4  and  C_19
REMARK    7  A    between atoms: C_7  and  C_16
REMARK    8  A    between atoms: C_8  and  C_17
REMARK    9  A    between atoms: C_9  and  C_20
REMARK   10  A    between atoms: C_9  and  C_21
REMARK   11  A    between atoms: C_20  and  C_24
REMARK   12  A    between atoms: C_21  and  C_25
REMARK                            x       y       z     vdW  Elec       q    Type
REMARK                         _______ _______ _______ _____ _____    ______ ____
ROOT
ATOM      1  C   UNL     1      -9.867  20.266   3.267  0.00  0.00    +0.000 C 
ENDROOT
BRANCH   1   3
ATOM      2  O   UNL     1     -12.015  19.914   4.301  0.00  0.00    +0.000 OA
ATOM      3  C   UNL     1     -10.792  19.864   4.399  0.00  0.00    +0.000 C 
BRANCH   3   5
ATOM      4  C   UNL     1      -8.856  18.924   5.588  0.00  0.00    +0.000 C 
ATOM      5  C   UNL     1     -10.123  19.356   5.633  0.00  0.00    +0.000 C 
BRANCH   4   6
ATOM      6  C   UNL     1      -8.110  18.394   6.744  0.00  0.00    +0.000 A 
ATOM      7  C   UNL     1      -8.310  18.955   7.995  0.00  0.00    +0.000 A 
ATOM      8  C   UNL     1      -7.604  18.453   9.088  0.00  0.00    +0.000 A 
ATOM      9  C   UNL     1      -7.223  17.347   6.556  0.00  0.00    +0.000 A 
ATOM     10  C   UNL     1      -6.707  17.400   8.915  0.00  0.00    +0.000 A 
ATOM     11  C   UNL     1      -6.517  16.846   7.650  0.00  0.00    +0.000 A 
BRANCH   8  12
ATOM     12  O   UNL     1      -7.799  19.002  10.320  0.00  0.00    +0.000 OA
ATOM     13  C   UNL     1      -9.141  19.318  10.685  0.00  0.00    +0.000 C 
ENDBRANCH   8  12
BRANCH  10  14
ATOM     14  O   UNL     1      -6.013  16.901   9.976  0.00  0.00    +0.000 OA
ATOM     15  H   UNL     1      -5.082  17.165   9.883  0.00  0.00    +0.000 HD
ENDBRANCH  10  14
ENDBRANCH   4   6
ENDBRANCH   3   5
ENDBRANCH   1   3
BRANCH   1  17
ATOM     16  O   UNL     1     -10.466  22.321   2.156  0.00  0.00    +0.000 OA
ATOM     17  C   UNL     1      -9.775  21.757   3.002  0.00  0.00    +0.000 C 
BRANCH  17  19
ATOM     18  C   UNL     1      -7.670  21.950   4.260  0.00  0.00    +0.000 C 
ATOM     19  C   UNL     1      -8.822  22.512   3.867  0.00  0.00    +0.000 C 
BRANCH  18  20
ATOM     20  C   UNL     1      -6.670  22.605   5.120  0.00  0.00    +0.000 A 
ATOM     21  C   UNL     1      -6.853  22.609   6.493  0.00  0.00    +0.000 A 
ATOM     22  C   UNL     1      -5.905  23.230   7.307  0.00  0.00    +0.000 A 
ATOM     23  C   UNL     1      -5.565  23.206   4.538  0.00  0.00    +0.000 A 
ATOM     24  C   UNL     1      -4.788  23.839   6.736  0.00  0.00    +0.000 A 
ATOM     25  C   UNL     1      -4.617  23.827   5.352  0.00  0.00    +0.000 A 
BRANCH  22  26
ATOM     26  O   UNL     1      -6.082  23.234   8.658  0.00  0.00    +0.000 OA
ATOM     27  C   UNL     1      -6.470  22.003   9.265  0.00  0.00    +0.000 C 
ENDBRANCH  22  26
BRANCH  24  28
ATOM     28  O   UNL     1      -3.854  24.447   7.520  0.00  0.00    +0.000 OA
ATOM     29  H   UNL     1      -4.103  25.378   7.644  0.00  0.00    +0.000 HD
ENDBRANCH  24  28
ENDBRANCH  18  20
ENDBRANCH  17  19
ENDBRANCH   1  17
TORSDOF 10
ENDMDL
MODEL 8
REMARK VINA RESULT:    -6.786      1.970      2.696
REMARK INTER + INTRA:         -11.028
REMARK INTER:                 -10.277
REMARK INTRA:                  -0.751
REMARK UNBOUND:                -0.672
REMARK  Name = 969516
REMARK  12 active torsions:
REMARK  status: ('A' for Active; 'I' for Inactive)
REMARK    1  A    between atoms: O_1  and  C_12
REMARK    2  A    between atoms: O_1  and  C_26
REMARK    3  A    between atoms: O_2  and  C_13
REMARK    4  A    between atoms: O_2  and  C_27
REMARK    5  A    between atoms: O_3  and  C_18
REMARK    6  A    between atoms: O_4  and  C_19
REMARK    7  A    between atoms: C_7  and  C_16
REMARK    8  A    between atoms: C_8  and  C_17
REMARK    9  A    between atoms: C_9  and  C_20
REMARK   10  A    between atoms: C_9  and  C_21
REMARK   11  A    between atoms: C_20  and  C_24
REMARK   12  A    between atoms: C_21  and  C_25
REMARK                            x       y       z     vdW  Elec       q    Type
REMARK                         _______ _______ _______ _____ _____    ______ ____
ROOT
ATOM      1  C   UNL     1       2.148  17.008  13.935  0.00  0.00    +0.000 C 
ENDROOT
BRANCH   1   3
ATOM      2  O   UNL     1       3.396  18.727  15.074  0.00  0.00    +0.000 OA
ATOM      3  C   UNL     1       2.940  18.298  14.017  0.00  0.00    +0.000 C 
BRANCH   3   5
ATOM      4  C   UNL     1       3.710  20.226  12.698  0.00  0.00    +0.000 C 
ATOM      5  C   UNL     1       3.177  18.997  12.719  0.00  0.00    +0.000 C 
BRANCH   4   6
ATOM      6  C   UNL     1       3.972  21.004  11.474  0.00  0.00    +0.000 A 
ATOM      7  C   UNL     1       2.906  21.545  10.773  0.00  0.00    +0.000 A 
ATOM      8  C   UNL     1       3.155  22.281   9.614  0.00  0.00    +0.000 A 
ATOM      9  C   UNL     1       5.279  21.176  11.047  0.00  0.00    +0.000 A 
ATOM     10  C   UNL     1       4.465  22.463   9.172  0.00  0.00    +0.000 A 
ATOM     11  C   UNL     1       5.527  21.912   9.888  0.00  0.00    +0.000 A 
BRANCH   8  12
ATOM     12  O   UNL     1       2.110  22.815   8.923  0.00  0.00    +0.000 OA
ATOM     13  C   UNL     1       0.803  22.357   9.266  0.00  0.00    +0.000 C 
ENDBRANCH   8  12
BRANCH  10  14
ATOM     14  O   UNL     1       4.720  23.181   8.042  0.00  0.00    +0.000 OA
ATOM     15  H   UNL     1       5.415  22.723   7.539  0.00  0.00    +0.000 HD
ENDBRANCH  10  14
ENDBRANCH   4   6
ENDBRANCH   3   5
ENDBRANCH   1   3
BRANCH   1  17
ATOM     16  O   UNL     1       3.432  15.136  14.747  0.00  0.00    +0.000 OA
ATOM     17  C   UNL     1       2.975  15.746  13.783  0.00  0.00    +0.000 C 
BRANCH  17  19
ATOM     18  C   UNL     1       3.920  14.180  12.138  0.00  0.00    +0.000 C 
ATOM     19  C   UNL     1       3.164  15.259  12.385  0.00  0.00    +0.000 C 
BRANCH  18  20
ATOM     20  C   UNL     1       4.178  13.627  10.797  0.00  0.00    +0.000 A 
ATOM     21  C   UNL     1       5.484  13.413  10.391  0.00  0.00    +0.000 A 
ATOM     22  C   UNL     1       5.728  12.890   9.120  0.00  0.00    +0.000 A 
ATOM     23  C   UNL     1       3.107  13.333   9.968  0.00  0.00    +0.000 A 
ATOM     24  C   UNL     1       4.661  12.589   8.275  0.00  0.00    +0.000 A 
ATOM     25  C   UNL     1       3.350  12.810   8.698  0.00  0.00    +0.000 A 
BRANCH  22  26
ATOM     26  O   UNL     1       7.012  12.678   8.718  0.00  0.00    +0.000 OA
ATOM     27  C   UNL     1       7.822  11.847   9.548  0.00  0.00    +0.000 C 
ENDBRANCH  22  26
BRANCH  24  28
ATOM     28  O   UNL     1       4.885  12.076   7.033  0.00  0.00    +0.000 OA
ATOM     29  H   UNL     1       5.167  12.793   6.440  0.00  0.00    +0.000 HD
ENDBRANCH  24  28
ENDBRANCH  18  20
ENDBRANCH  17  19
ENDBRANCH   1  17
TORSDOF 10
ENDMDL
MODEL 9
REMARK VINA RESULT:    -6.382     14.486     17.966
REMARK INTER + INTRA:         -10.411
REMARK INTER:                  -8.506
REMARK INTRA:                  -1.905
REMARK UNBOUND:                -0.672
REMARK  Name = 969516
REMARK  12 active torsions:
REMARK  status: ('A' for Active; 'I' for Inactive)
REMARK    1  A    between atoms: O_1  and  C_12
REMARK    2  A    between atoms: O_1  and  C_26
REMARK    3  A    between atoms: O_2  and  C_13
REMARK    4  A    between atoms: O_2  and  C_27
REMARK    5  A    between atoms: O_3  and  C_18
REMARK    6  A    between atoms: O_4  and  C_19
REMARK    7  A    between atoms: C_7  and  C_16
REMARK    8  A    between atoms: C_8  and  C_17
REMARK    9  A    between atoms: C_9  and  C_20
REMARK   10  A    between atoms: C_9  and  C_21
REMARK   11  A    between atoms: C_20  and  C_24
REMARK   12  A    between atoms: C_21  and  C_25
REMARK                            x       y       z     vdW  Elec       q    Type
REMARK                         _______ _______ _______ _____ _____    ______ ____
ROOT
ATOM      1  C   UNL     1       6.453   4.272  -2.625  0.00  0.00    +0.000 C 
ENDROOT
BRANCH   1   3
ATOM      2  O   UNL     1       7.116   6.569  -2.921  0.00  0.00    +0.000 OA
ATOM      3  C   UNL     1       6.656   5.706  -2.179  0.00  0.00    +0.000 C 
BRANCH   3   5
ATOM      4  C   UNL     1       6.891   5.534   0.263  0.00  0.00    +0.000 C 
ATOM      5  C   UNL     1       6.216   6.020  -0.787  0.00  0.00    +0.000 C 
BRANCH   4   6
ATOM      6  C   UNL     1       6.534   5.775   1.673  0.00  0.00    +0.000 A 
ATOM      7  C   UNL     1       7.294   5.193   2.674  0.00  0.00    +0.000 A 
ATOM      8  C   UNL     1       6.955   5.422   4.008  0.00  0.00    +0.000 A 
ATOM      9  C   UNL     1       5.444   6.578   1.967  0.00  0.00    +0.000 A 
ATOM     10  C   UNL     1       5.861   6.227   4.321  0.00  0.00    +0.000 A 
ATOM     11  C   UNL     1       5.105   6.806   3.302  0.00  0.00    +0.000 A 
BRANCH   8  12
ATOM     12  O   UNL     1       7.701   4.851   4.996  0.00  0.00    +0.000 OA
ATOM     13  C   UNL     1       8.905   5.519   5.367  0.00  0.00    +0.000 C 
ENDBRANCH   8  12
BRANCH  10  14
ATOM     14  O   UNL     1       5.521   6.458   5.620  0.00  0.00    +0.000 OA
ATOM     15  H   UNL     1       4.612   6.803   5.642  0.00  0.00    +0.000 HD
ENDBRANCH  10  14
ENDBRANCH   4   6
ENDBRANCH   3   5
ENDBRANCH   1   3
BRANCH   1  17
ATOM     16  O   UNL     1       4.672   3.784  -4.175  0.00  0.00    +0.000 OA
ATOM     17  C   UNL     1       5.031   3.906  -3.007  0.00  0.00    +0.000 C 
BRANCH  17  19
ATOM     18  C   UNL     1       4.522   3.006  -0.774  0.00  0.00    +0.000 C 
ATOM     19  C   UNL     1       4.099   3.654  -1.869  0.00  0.00    +0.000 C 
BRANCH  18  20
ATOM     20  C   UNL     1       3.680   2.699   0.395  0.00  0.00    +0.000 A 
ATOM     21  C   UNL     1       4.040   3.191   1.639  0.00  0.00    +0.000 A 
ATOM     22  C   UNL     1       3.244   2.899   2.746  0.00  0.00    +0.000 A 
ATOM     23  C   UNL     1       2.543   1.923   0.227  0.00  0.00    +0.000 A 
ATOM     24  C   UNL     1       2.097   2.120   2.593  0.00  0.00    +0.000 A 
ATOM     25  C   UNL     1       1.747   1.632   1.335  0.00  0.00    +0.000 A 
BRANCH  22  26
ATOM     26  O   UNL     1       3.595   3.382   3.970  0.00  0.00    +0.000 OA
ATOM     27  C   UNL     1       4.613   2.678   4.678  0.00  0.00    +0.000 C 
ENDBRANCH  22  26
BRANCH  24  28
ATOM     28  O   UNL     1       1.309   1.830   3.666  0.00  0.00    +0.000 OA
ATOM     29  H   UNL     1       0.920   0.948   3.544  0.00  0.00    +0.000 HD
ENDBRANCH  24  28
ENDBRANCH  18  20
ENDBRANCH  17  19
ENDBRANCH   1  17
TORSDOF 10
ENDMDL
