MODEL 1
REMARK VINA RESULT:    -4.923      0.000      0.000
REMARK INTER + INTRA:          -6.391
REMARK INTER:                  -5.930
REMARK INTRA:                  -0.461
REMARK UNBOUND:                -0.461
REMARK  Name = 2244
REMARK  5 active torsions:
REMARK  status: ('A' for Active; 'I' for Inactive)
REMARK    1  A    between atoms: O_1  and  C_5
REMARK    2  A    between atoms: O_1  and  C_12
REMARK    3  A    between atoms: O_2  and  C_11
REMARK    4  A    between atoms: C_6  and  C_11
REMARK    5  A    between atoms: C_12  and  C_13
REMARK                            x       y       z     vdW  Elec       q    Type
REMARK                         _______ _______ _______ _____ _____    ______ ____
ROOT
ATOM      1  C   UNL     1       7.819  38.143   3.826  0.00  0.00    +0.000 A 
ATOM      2  C   UNL     1       8.584  39.302   3.960  0.00  0.00    +0.000 A 
ATOM      3  C   UNL     1       6.502  38.226   3.377  0.00  0.00    +0.000 A 
ATOM      4  C   UNL     1       8.032  40.543   3.644  0.00  0.00    +0.000 A 
ATOM      5  C   UNL     1       5.948  39.467   3.061  0.00  0.00    +0.000 A 
ATOM      6  C   UNL     1       6.713  40.625   3.195  0.00  0.00    +0.000 A 
ENDROOT
BRANCH   2   8
ATOM      7  O   UNL     1      10.472  39.946   5.290  0.00  0.00    +0.000 OA
ATOM      8  C   UNL     1       9.963  39.238   4.425  0.00  0.00    +0.000 C 
BRANCH   8   9
ATOM      9  O   UNL     1      10.673  38.272   3.778  0.00  0.00    +0.000 OA
ATOM     10  H   UNL     1      11.637  38.451   3.799  0.00  0.00    +0.000 HD
ENDBRANCH   8   9
ENDBRANCH   2   8
BRANCH   1  11
ATOM     11  O   UNL     1       8.342  36.921   4.127  0.00  0.00    +0.000 OA
BRANCH  11  13
ATOM     12  O   UNL     1       6.934  35.140   4.697  0.00  0.00    +0.000 OA
ATOM     13  C   UNL     1       7.547  36.157   4.995  0.00  0.00    +0.000 C 
ATOM     14  C   UNL     1       7.549  36.769   6.364  0.00  0.00    +0.000 C 
ENDBRANCH  11  13
ENDBRANCH   1  11
TORSDOF 4
ENDMDL
MODEL 2
REMARK VINA RESULT:    -4.704     26.195     27.492
REMARK INTER + INTRA:          -6.128
REMARK INTER:                  -5.650
REMARK INTRA:                  -0.478
REMARK UNBOUND:                -0.461
REMARK  Name = 2244
REMARK  5 active torsions:
REMARK  status: ('A' for Active; 'I' for Inactive)
REMARK    1  A    between atoms: O_1  and  C_5
REMARK    2  A    between atoms: O_1  and  C_12
REMARK    3  A    between atoms: O_2  and  C_11
REMARK    4  A    between atoms: C_6  and  C_11
REMARK    5  A    between atoms: C_12  and  C_13
REMARK                            x       y       z     vdW  Elec       q    Type
REMARK                         _______ _______ _______ _____ _____    ______ ____
ROOT
ATOM      1  C   UNL     1      27.869  19.897   0.836  0.00  0.00    +0.000 A 
ATOM      2  C   UNL     1      28.528  20.433  -0.270  0.00  0.00    +0.000 A 
ATOM      3  C   UNL     1      28.553  19.061   1.718  0.00  0.00    +0.000 A 
ATOM      4  C   UNL     1      29.872  20.134  -0.494  0.00  0.00    +0.000 A 
ATOM      5  C   UNL     1      29.897  18.762   1.495  0.00  0.00    +0.000 A 
ATOM      6  C   UNL     1      30.556  19.298   0.389  0.00  0.00    +0.000 A 
ENDROOT
BRANCH   2   8
ATOM      7  O   UNL     1      27.861  21.237  -2.427  0.00  0.00    +0.000 OA
ATOM      8  C   UNL     1      27.832  21.310  -1.202  0.00  0.00    +0.000 C 
BRANCH   8   9
ATOM      9  O   UNL     1      27.111  22.268  -0.556  0.00  0.00    +0.000 OA
ATOM     10  H   UNL     1      27.285  23.163  -0.918  0.00  0.00    +0.000 HD
ENDBRANCH   8   9
ENDBRANCH   2   8
BRANCH   1  11
ATOM     11  O   UNL     1      26.557  20.179   1.073  0.00  0.00    +0.000 OA
BRANCH  11  13
ATOM     12  O   UNL     1      25.267  18.686   2.332  0.00  0.00    +0.000 OA
ATOM     13  C   UNL     1      25.754  19.045   1.268  0.00  0.00    +0.000 C 
ATOM     14  C   UNL     1      25.571  18.318  -0.032  0.00  0.00    +0.000 C 
ENDBRANCH  11  13
ENDBRANCH   1  11
TORSDOF 4
ENDMDL
MODEL 3
REMARK VINA RESULT:    -4.482     10.698     11.826
REMARK INTER + INTRA:          -5.860
REMARK INTER:                  -5.376
REMARK INTRA:                  -0.484
REMARK UNBOUND:                -0.461
REMARK  Name = 2244
REMARK  5 active torsions:
REMARK  status: ('A' for Active; 'I' for Inactive)
REMARK    1  A    between atoms: O_1  and  C_5
REMARK    2  A    between atoms: O_1  and  C_12
REMARK    3  A    between atoms: O_2  and  C_11
REMARK    4  A    between atoms: C_6  and  C_11
REMARK    5  A    between atoms: C_12  and  C_13
REMARK                            x       y       z     vdW  Elec       q    Type
REMARK                         _______ _______ _______ _____ _____    ______ ____
ROOT
ATOM      1  C   UNL     1      12.533  39.051  -5.842  0.00  0.00    +0.000 A 
ATOM      2  C   UNL     1      11.839  37.842  -5.889  0.00  0.00    +0.000 A 
ATOM      3  C   UNL     1      11.907  40.230  -6.245  0.00  0.00    +0.000 A 
ATOM      4  C   UNL     1      10.519  37.812  -6.339  0.00  0.00    +0.000 A 
ATOM      5  C   UNL     1      10.587  40.201  -6.695  0.00  0.00    +0.000 A 
ATOM      6  C   UNL     1       9.894  38.992  -6.742  0.00  0.00    +0.000 A 
ENDROOT
BRANCH   2   8
ATOM      7  O   UNL     1      12.858  35.696  -6.208  0.00  0.00    +0.000 OA
ATOM      8  C   UNL     1      12.473  36.598  -5.471  0.00  0.00    +0.000 C 
BRANCH   8   9
ATOM      9  O   UNL     1      12.605  36.527  -4.117  0.00  0.00    +0.000 OA
ATOM     10  H   UNL     1      11.746  36.646  -3.660  0.00  0.00    +0.000 HD
ENDBRANCH   8   9
ENDBRANCH   2   8
BRANCH   1  11
ATOM     11  O   UNL     1      13.823  39.100  -5.404  0.00  0.00    +0.000 OA
BRANCH  11  13
ATOM     12  O   UNL     1      15.344  40.695  -6.192  0.00  0.00    +0.000 OA
ATOM     13  C   UNL     1      14.721  39.650  -6.331  0.00  0.00    +0.000 C 
ATOM     14  C   UNL     1      14.816  38.766  -7.539  0.00  0.00    +0.000 C 
ENDBRANCH  11  13
ENDBRANCH   1  11
TORSDOF 4
ENDMDL
MODEL 4
REMARK VINA RESULT:    -4.400     26.181     27.422
REMARK INTER + INTRA:          -5.761
REMARK INTER:                  -5.151
REMARK INTRA:                  -0.610
REMARK UNBOUND:                -0.461
REMARK  Name = 2244
REMARK  5 active torsions:
REMARK  status: ('A' for Active; 'I' for Inactive)
REMARK    1  A    between atoms: O_1  and  C_5
REMARK    2  A    between atoms: O_1  and  C_12
REMARK    3  A    between atoms: O_2  and  C_11
REMARK    4  A    between atoms: C_6  and  C_11
REMARK    5  A    between atoms: C_12  and  C_13
REMARK                            x       y       z     vdW  Elec       q    Type
REMARK                         _______ _______ _______ _____ _____    ______ ____
ROOT
ATOM      1  C   UNL     1      27.478  19.074  -0.933  0.00  0.00    +0.000 A 
ATOM      2  C   UNL     1      27.975  20.114  -1.717  0.00  0.00    +0.000 A 
ATOM      3  C   UNL     1      27.193  17.838  -1.513  0.00  0.00    +0.000 A 
ATOM      4  C   UNL     1      28.189  19.919  -3.081  0.00  0.00    +0.000 A 
ATOM      5  C   UNL     1      27.407  17.642  -2.877  0.00  0.00    +0.000 A 
ATOM      6  C   UNL     1      27.904  18.682  -3.661  0.00  0.00    +0.000 A 
ENDROOT
BRANCH   2   8
ATOM      7  O   UNL     1      29.399  21.896  -0.979  0.00  0.00    +0.000 OA
ATOM      8  C   UNL     1      28.281  21.412  -1.130  0.00  0.00    +0.000 C 
BRANCH   8   9
ATOM      9  O   UNL     1      27.154  22.073  -0.745  0.00  0.00    +0.000 OA
ATOM     10  H   UNL     1      26.908  21.865   0.182  0.00  0.00    +0.000 HD
ENDBRANCH   8   9
ENDBRANCH   2   8
BRANCH   1  11
ATOM     11  O   UNL     1      27.264  19.244   0.403  0.00  0.00    +0.000 OA
BRANCH  11  13
ATOM     12  O   UNL     1      25.228  20.398   0.370  0.00  0.00    +0.000 OA
ATOM     13  C   UNL     1      25.920  19.461   0.744  0.00  0.00    +0.000 C 
ATOM     14  C   UNL     1      25.439  18.366   1.649  0.00  0.00    +0.000 C 
ENDBRANCH  11  13
ENDBRANCH   1  11
TORSDOF 4
ENDMDL
MODEL 5
REMARK VINA RESULT:    -4.392     26.059     27.516
REMARK INTER + INTRA:          -5.752
REMARK INTER:                  -5.200
REMARK INTRA:                  -0.552
REMARK UNBOUND:                -0.461
REMARK  Name = 2244
REMARK  5 active torsions:
REMARK  status: ('A' for Active; 'I' for Inactive)
REMARK    1  A    between atoms: O_1  and  C_5
REMARK    2  A    between atoms: O_1  and  C_12
REMARK    3  A    between atoms: O_2  and  C_11
REMARK    4  A    between atoms: C_6  and  C_11
REMARK    5  A    between atoms: C_12  and  C_13
REMARK                            x       y       z     vdW  Elec       q    Type
REMARK                         _______ _______ _______ _____ _____    ______ ____
ROOT
ATOM      1  C   UNL     1      27.232  18.673  -0.367  0.00  0.00    +0.000 A 
ATOM      2  C   UNL     1      26.013  18.309   0.205  0.00  0.00    +0.000 A 
ATOM      3  C   UNL     1      27.701  17.999  -1.495  0.00  0.00    +0.000 A 
ATOM      4  C   UNL     1      25.263  17.273  -0.350  0.00  0.00    +0.000 A 
ATOM      5  C   UNL     1      26.951  16.963  -2.050  0.00  0.00    +0.000 A 
ATOM      6  C   UNL     1      25.733  16.599  -1.477  0.00  0.00    +0.000 A 
ENDROOT
BRANCH   2   8
ATOM      7  O   UNL     1      25.559  18.600   2.541  0.00  0.00    +0.000 OA
ATOM      8  C   UNL     1      25.504  19.001   1.382  0.00  0.00    +0.000 C 
BRANCH   8   9
ATOM      9  O   UNL     1      24.931  20.194   1.061  0.00  0.00    +0.000 OA
ATOM     10  H   UNL     1      24.838  20.305   0.091  0.00  0.00    +0.000 HD
ENDBRANCH   8   9
ENDBRANCH   2   8
BRANCH   1  11
ATOM     11  O   UNL     1      27.978  19.685   0.159  0.00  0.00    +0.000 OA
BRANCH  11  13
ATOM     12  O   UNL     1      26.929  21.686  -0.454  0.00  0.00    +0.000 OA
ATOM     13  C   UNL     1      27.865  20.900  -0.534  0.00  0.00    +0.000 C 
ATOM     14  C   UNL     1      29.068  21.108  -1.404  0.00  0.00    +0.000 C 
ENDBRANCH  11  13
ENDBRANCH   1  11
TORSDOF 4
ENDMDL
MODEL 6
REMARK VINA RESULT:    -4.383     18.837     21.505
REMARK INTER + INTRA:          -5.740
REMARK INTER:                  -5.199
REMARK INTRA:                  -0.541
REMARK UNBOUND:                -0.461
REMARK  Name = 2244
REMARK  5 active torsions:
REMARK  status: ('A' for Active; 'I' for Inactive)
REMARK    1  A    between atoms: O_1  and  C_5
REMARK    2  A    between atoms: O_1  and  C_12
REMARK    3  A    between atoms: O_2  and  C_11
REMARK    4  A    between atoms: C_6  and  C_11
REMARK    5  A    between atoms: C_12  and  C_13
REMARK                            x       y       z     vdW  Elec       q    Type
REMARK                         _______ _______ _______ _____ _____    ______ ____
ROOT
ATOM      1  C   UNL     1       4.102  17.899   2.540  0.00  0.00    +0.000 A 
ATOM      2  C   UNL     1       4.291  16.589   2.978  0.00  0.00    +0.000 A 
ATOM      3  C   UNL     1       3.621  18.141   1.253  0.00  0.00    +0.000 A 
ATOM      4  C   UNL     1       3.997  15.520   2.132  0.00  0.00    +0.000 A 
ATOM      5  C   UNL     1       3.327  17.073   0.406  0.00  0.00    +0.000 A 
ATOM      6  C   UNL     1       3.516  15.763   0.845  0.00  0.00    +0.000 A 
ENDROOT
BRANCH   2   8
ATOM      7  O   UNL     1       4.205  15.690   5.199  0.00  0.00    +0.000 OA
ATOM      8  C   UNL     1       4.791  16.314   4.319  0.00  0.00    +0.000 C 
BRANCH   8   9
ATOM      9  O   UNL     1       6.031  16.841   4.516  0.00  0.00    +0.000 OA
ATOM     10  H   UNL     1       6.274  17.477   3.810  0.00  0.00    +0.000 HD
ENDBRANCH   8   9
ENDBRANCH   2   8
BRANCH   1  11
ATOM     11  O   UNL     1       4.381  18.956   3.353  0.00  0.00    +0.000 OA
BRANCH  11  13
ATOM     12  O   UNL     1       2.212  19.110   4.218  0.00  0.00    +0.000 OA
ATOM     13  C   UNL     1       3.245  19.634   3.821  0.00  0.00    +0.000 C 
ATOM     14  C   UNL     1       3.473  21.115   3.766  0.00  0.00    +0.000 C 
ENDBRANCH  11  13
ENDBRANCH   1  11
TORSDOF 4
ENDMDL
MODEL 7
REMARK VINA RESULT:    -4.343     26.306     27.515
REMARK INTER + INTRA:          -5.693
REMARK INTER:                  -5.053
REMARK INTRA:                  -0.640
REMARK UNBOUND:                -0.461
REMARK  Name = 2244
REMARK  5 active torsions:
REMARK  status: ('A' for Active; 'I' for Inactive)
REMARK    1  A    between atoms: O_1  and  C_5
REMARK    2  A    between atoms: O_1  and  C_12
REMARK    3  A    between atoms: O_2  and  C_11
REMARK    4  A    between atoms: C_6  and  C_11
REMARK    5  A    between atoms: C_12  and  C_13
REMARK                            x       y       z     vdW  Elec       q    Type
REMARK                         _______ _______ _______ _____ _____    ______ ____
ROOT
ATOM      1  C   UNL     1      27.172  18.523  -0.818  0.00  0.00    +0.000 A 
ATOM      2  C   UNL     1      26.995  19.668  -0.042  0.00  0.00    +0.000 A 
ATOM      3  C   UNL     1      27.704  18.628  -2.103  0.00  0.00    +0.000 A 
ATOM      4  C   UNL     1      27.351  20.918  -0.550  0.00  0.00    +0.000 A 
ATOM      5  C   UNL     1      28.059  19.877  -2.612  0.00  0.00    +0.000 A 
ATOM      6  C   UNL     1      27.882  21.021  -1.835  0.00  0.00    +0.000 A 
ENDROOT
BRANCH   2   8
ATOM      7  O   UNL     1      27.080  19.601   2.353  0.00  0.00    +0.000 OA
ATOM      8  C   UNL     1      26.443  19.581   1.304  0.00  0.00    +0.000 C 
BRANCH   8   9
ATOM      9  O   UNL     1      25.086  19.469   1.289  0.00  0.00    +0.000 OA
ATOM     10  H   UNL     1      24.664  20.054   1.953  0.00  0.00    +0.000 HD
ENDBRANCH   8   9
ENDBRANCH   2   8
BRANCH   1  11
ATOM     11  O   UNL     1      26.833  17.293  -0.339  0.00  0.00    +0.000 OA
BRANCH  11  13
ATOM     12  O   UNL     1      24.504  17.265  -0.570  0.00  0.00    +0.000 OA
ATOM     13  C   UNL     1      25.610  16.807  -0.826  0.00  0.00    +0.000 C 
ATOM     14  C   UNL     1      25.847  15.625  -1.718  0.00  0.00    +0.000 C 
ENDBRANCH  11  13
ENDBRANCH   1  11
TORSDOF 4
ENDMDL
MODEL 8
REMARK VINA RESULT:    -4.316     11.971     13.088
REMARK INTER + INTRA:          -5.660
REMARK INTER:                  -4.981
REMARK INTRA:                  -0.679
REMARK UNBOUND:                -0.461
REMARK  Name = 2244
REMARK  5 active torsions:
REMARK  status: ('A' for Active; 'I' for Inactive)
REMARK    1  A    between atoms: O_1  and  C_5
REMARK    2  A    between atoms: O_1  and  C_12
REMARK    3  A    between atoms: O_2  and  C_11
REMARK    4  A    between atoms: C_6  and  C_11
REMARK    5  A    between atoms: C_12  and  C_13
REMARK                            x       y       z     vdW  Elec       q    Type
REMARK                         _______ _______ _______ _____ _____    ______ ____
ROOT
ATOM      1  C   UNL     1      13.426  37.666  -7.559  0.00  0.00    +0.000 A 
ATOM      2  C   UNL     1      12.881  36.623  -6.812  0.00  0.00    +0.000 A 
ATOM      3  C   UNL     1      14.329  37.390  -8.586  0.00  0.00    +0.000 A 
ATOM      4  C   UNL     1      13.237  35.304  -7.091  0.00  0.00    +0.000 A 
ATOM      5  C   UNL     1      14.686  36.071  -8.866  0.00  0.00    +0.000 A 
ATOM      6  C   UNL     1      14.140  35.029  -8.118  0.00  0.00    +0.000 A 
ENDROOT
BRANCH   2   8
ATOM      7  O   UNL     1      10.713  36.797  -5.804  0.00  0.00    +0.000 OA
ATOM      8  C   UNL     1      11.935  36.889  -5.736  0.00  0.00    +0.000 C 
BRANCH   8   9
ATOM      9  O   UNL     1      12.564  37.270  -4.590  0.00  0.00    +0.000 OA
ATOM     10  H   UNL     1      13.123  36.553  -4.224  0.00  0.00    +0.000 HD
ENDBRANCH   8   9
ENDBRANCH   2   8
BRANCH   1  11
ATOM     11  O   UNL     1      13.089  38.962  -7.303  0.00  0.00    +0.000 OA
BRANCH  11  13
ATOM     12  O   UNL     1      14.483  39.454  -5.489  0.00  0.00    +0.000 OA
ATOM     13  C   UNL     1      14.078  39.686  -6.621  0.00  0.00    +0.000 C 
ATOM     14  C   UNL     1      14.580  40.806  -7.483  0.00  0.00    +0.000 C 
ENDBRANCH  11  13
ENDBRANCH   1  11
TORSDOF 4
ENDMDL
MODEL 9
REMARK VINA RESULT:    -4.277     26.612     27.446
REMARK INTER + INTRA:          -5.613
REMARK INTER:                  -4.873
REMARK INTRA:                  -0.739
REMARK UNBOUND:                -0.461
REMARK  Name = 2244
REMARK  5 active torsions:
REMARK  status: ('A' for Active; 'I' for Inactive)
REMARK    1  A    between atoms: O_1  and  C_5
REMARK    2  A    between atoms: O_1  and  C_12
REMARK    3  A    between atoms: O_2  and  C_11
REMARK    4  A    between atoms: C_6  and  C_11
REMARK    5  A    between atoms: C_12  and  C_13
REMARK                            x       y       z     vdW  Elec       q    Type
REMARK                         _______ _______ _______ _____ _____    ______ ____
ROOT
ATOM      1  C   UNL     1      26.915  18.645   0.399  0.00  0.00    +0.000 A 
ATOM      2  C   UNL     1      26.827  18.456   1.778  0.00  0.00    +0.000 A 
ATOM      3  C   UNL     1      25.917  18.146  -0.438  0.00  0.00    +0.000 A 
ATOM      4  C   UNL     1      25.742  17.768   2.320  0.00  0.00    +0.000 A 
ATOM      5  C   UNL     1      24.832  17.457   0.104  0.00  0.00    +0.000 A 
ATOM      6  C   UNL     1      24.745  17.268   1.482  0.00  0.00    +0.000 A 
ENDROOT
BRANCH   2   8
ATOM      7  O   UNL     1      28.653  18.303   3.323  0.00  0.00    +0.000 OA
ATOM      8  C   UNL     1      27.858  18.972   2.670  0.00  0.00    +0.000 C 
BRANCH   8   9
ATOM      9  O   UNL     1      27.855  20.333   2.715  0.00  0.00    +0.000 OA
ATOM     10  H   UNL     1      28.723  20.690   2.999  0.00  0.00    +0.000 HD
ENDBRANCH   8   9
ENDBRANCH   2   8
BRANCH   1  11
ATOM     11  O   UNL     1      27.966  19.317  -0.150  0.00  0.00    +0.000 OA
BRANCH  11  13
ATOM     12  O   UNL     1      27.055  21.471  -0.040  0.00  0.00    +0.000 OA
ATOM     13  C   UNL     1      27.635  20.584  -0.654  0.00  0.00    +0.000 C 
ATOM     14  C   UNL     1      28.095  20.706  -2.076  0.00  0.00    +0.000 C 
ENDBRANCH  11  13
ENDBRANCH   1  11
TORSDOF 4
ENDMDL
