MODEL 1
REMARK VINA RESULT:    -7.652      0.000      0.000
REMARK INTER + INTRA:         -12.350
REMARK INTER:                 -11.678
REMARK INTRA:                  -0.673
REMARK UNBOUND:                -0.673
REMARK  Name = 969516
REMARK  12 active torsions:
REMARK  status: ('A' for Active; 'I' for Inactive)
REMARK    1  A    between atoms: O_1  and  C_12
REMARK    2  A    between atoms: O_1  and  C_26
REMARK    3  A    between atoms: O_2  and  C_13
REMARK    4  A    between atoms: O_2  and  C_27
REMARK    5  A    between atoms: O_3  and  C_18
REMARK    6  A    between atoms: O_4  and  C_19
REMARK    7  A    between atoms: C_7  and  C_16
REMARK    8  A    between atoms: C_8  and  C_17
REMARK    9  A    between atoms: C_9  and  C_20
REMARK   10  A    between atoms: C_9  and  C_21
REMARK   11  A    between atoms: C_20  and  C_24
REMARK   12  A    between atoms: C_21  and  C_25
REMARK                            x       y       z     vdW  Elec       q    Type
REMARK                         _______ _______ _______ _____ _____    ______ ____
ROOT
ATOM      1  C   UNL     1     120.665   1.126  37.725  0.00  0.00    +0.000 C 
ENDROOT
BRANCH   1   3
ATOM      2  O   UNL     1     123.000   0.552  37.876  0.00  0.00    +0.000 OA
ATOM      3  C   UNL     1     122.116   1.379  38.080  0.00  0.00    +0.000 C 
BRANCH   3   5
ATOM      4  C   UNL     1     123.646   3.248  38.547  0.00  0.00    +0.000 C 
ATOM      5  C   UNL     1     122.417   2.725  38.655  0.00  0.00    +0.000 C 
BRANCH   4   6
ATOM      6  C   UNL     1     124.048   4.559  39.088  0.00  0.00    +0.000 A 
ATOM      7  C   UNL     1     125.368   4.964  38.975  0.00  0.00    +0.000 A 
ATOM      8  C   UNL     1     125.747   6.205  39.487  0.00  0.00    +0.000 A 
ATOM      9  C   UNL     1     123.097   5.360  39.700  0.00  0.00    +0.000 A 
ATOM     10  C   UNL     1     124.803   7.022  40.106  0.00  0.00    +0.000 A 
ATOM     11  C   UNL     1     123.477   6.600  40.213  0.00  0.00    +0.000 A 
BRANCH   8  12
ATOM     12  O   UNL     1     127.045   6.606  39.378  0.00  0.00    +0.000 OA
ATOM     13  C   UNL     1     127.949   6.163  40.387  0.00  0.00    +0.000 C 
ENDBRANCH   8  12
BRANCH  10  14
ATOM     14  O   UNL     1     125.161   8.236  40.610  0.00  0.00    +0.000 OA
ATOM     15  H   UNL     1     126.126   8.327  40.530  0.00  0.00    +0.000 HD
ENDBRANCH  10  14
ENDBRANCH   4   6
ENDBRANCH   3   5
ENDBRANCH   1   3
BRANCH   1  17
ATOM     16  O   UNL     1     119.650   0.792  39.886  0.00  0.00    +0.000 OA
ATOM     17  C   UNL     1     119.867   0.355  38.759  0.00  0.00    +0.000 C 
BRANCH  17  19
ATOM     18  C   UNL     1     118.443  -1.015  37.293  0.00  0.00    +0.000 C 
ATOM     19  C   UNL     1     119.318  -0.957  38.307  0.00  0.00    +0.000 C 
BRANCH  18  20
ATOM     20  C   UNL     1     117.836  -2.255  36.780  0.00  0.00    +0.000 A 
ATOM     21  C   UNL     1     118.208  -3.471  37.329  0.00  0.00    +0.000 A 
ATOM     22  C   UNL     1     117.634  -4.645  36.842  0.00  0.00    +0.000 A 
ATOM     23  C   UNL     1     116.905  -2.180  35.756  0.00  0.00    +0.000 A 
ATOM     24  C   UNL     1     116.695  -4.587  35.813  0.00  0.00    +0.000 A 
ATOM     25  C   UNL     1     116.331  -3.355  35.269  0.00  0.00    +0.000 A 
BRANCH  22  26
ATOM     26  O   UNL     1     117.996  -5.842  37.382  0.00  0.00    +0.000 OA
ATOM     27  C   UNL     1     119.336  -5.961  37.857  0.00  0.00    +0.000 C 
ENDBRANCH  22  26
BRANCH  24  28
ATOM     28  O   UNL     1     116.125  -5.726  35.329  0.00  0.00    +0.000 OA
ATOM     29  H   UNL     1     116.108  -6.395  36.035  0.00  0.00    +0.000 HD
ENDBRANCH  24  28
ENDBRANCH  18  20
ENDBRANCH  17  19
ENDBRANCH   1  17
TORSDOF 10
ENDMDL
MODEL 2
REMARK VINA RESULT:    -7.609      2.245      3.018
REMARK INTER + INTRA:         -12.285
REMARK INTER:                 -11.487
REMARK INTRA:                  -0.798
REMARK UNBOUND:                -0.673
REMARK  Name = 969516
REMARK  12 active torsions:
REMARK  status: ('A' for Active; 'I' for Inactive)
REMARK    1  A    between atoms: O_1  and  C_12
REMARK    2  A    between atoms: O_1  and  C_26
REMARK    3  A    between atoms: O_2  and  C_13
REMARK    4  A    between atoms: O_2  and  C_27
REMARK    5  A    between atoms: O_3  and  C_18
REMARK    6  A    between atoms: O_4  and  C_19
REMARK    7  A    between atoms: C_7  and  C_16
REMARK    8  A    between atoms: C_8  and  C_17
REMARK    9  A    between atoms: C_9  and  C_20
REMARK   10  A    between atoms: C_9  and  C_21
REMARK   11  A    between atoms: C_20  and  C_24
REMARK   12  A    between atoms: C_21  and  C_25
REMARK                            x       y       z     vdW  Elec       q    Type
REMARK                         _______ _______ _______ _____ _____    ______ ____
ROOT
ATOM      1  C   UNL     1     120.341   0.750  37.853  0.00  0.00    +0.000 C 
ENDROOT
BRANCH   1   3
ATOM      2  O   UNL     1     122.686   0.208  37.735  0.00  0.00    +0.000 OA
ATOM      3  C   UNL     1     121.819   1.014  38.063  0.00  0.00    +0.000 C 
BRANCH   3   5
ATOM      4  C   UNL     1     123.258   2.999  38.249  0.00  0.00    +0.000 C 
ATOM      5  C   UNL     1     122.163   2.342  38.653  0.00  0.00    +0.000 C 
BRANCH   4   6
ATOM      6  C   UNL     1     123.691   4.307  38.775  0.00  0.00    +0.000 A 
ATOM      7  C   UNL     1     124.996   4.723  38.567  0.00  0.00    +0.000 A 
ATOM      8  C   UNL     1     125.405   5.960  39.066  0.00  0.00    +0.000 A 
ATOM      9  C   UNL     1     122.784   5.092  39.467  0.00  0.00    +0.000 A 
ATOM     10  C   UNL     1     124.504   6.762  39.765  0.00  0.00    +0.000 A 
ATOM     11  C   UNL     1     123.193   6.330  39.965  0.00  0.00    +0.000 A 
BRANCH   8  12
ATOM     12  O   UNL     1     126.688   6.372  38.864  0.00  0.00    +0.000 OA
ATOM     13  C   UNL     1     127.639   5.377  38.493  0.00  0.00    +0.000 C 
ENDBRANCH   8  12
BRANCH  10  14
ATOM     14  O   UNL     1     124.892   7.973  40.255  0.00  0.00    +0.000 OA
ATOM     15  H   UNL     1     124.798   7.955  41.223  0.00  0.00    +0.000 HD
ENDBRANCH  10  14
ENDBRANCH   4   6
ENDBRANCH   3   5
ENDBRANCH   1   3
BRANCH   1  17
ATOM     16  O   UNL     1     119.148   0.545  39.938  0.00  0.00    +0.000 OA
ATOM     17  C   UNL     1     119.653  -0.014  38.968  0.00  0.00    +0.000 C 
BRANCH  17  19
ATOM     18  C   UNL     1     120.484  -2.292  39.388  0.00  0.00    +0.000 C 
ATOM     19  C   UNL     1     119.585  -1.495  38.793  0.00  0.00    +0.000 C 
BRANCH  18  20
ATOM     20  C   UNL     1     120.510  -3.760  39.271  0.00  0.00    +0.000 A 
ATOM     21  C   UNL     1     121.369  -4.490  40.075  0.00  0.00    +0.000 A 
ATOM     22  C   UNL     1     121.395  -5.880  39.962  0.00  0.00    +0.000 A 
ATOM     23  C   UNL     1     119.675  -4.381  38.356  0.00  0.00    +0.000 A 
ATOM     24  C   UNL     1     120.560  -6.520  39.047  0.00  0.00    +0.000 A 
ATOM     25  C   UNL     1     119.700  -5.771  38.243  0.00  0.00    +0.000 A 
BRANCH  22  26
ATOM     26  O   UNL     1     122.237  -6.601  40.753  0.00  0.00    +0.000 OA
ATOM     27  C   UNL     1     123.620  -6.596  40.402  0.00  0.00    +0.000 C 
ENDBRANCH  22  26
BRANCH  24  28
ATOM     28  O   UNL     1     120.573  -7.878  38.928  0.00  0.00    +0.000 OA
ATOM     29  H   UNL     1     119.869  -8.251  39.485  0.00  0.00    +0.000 HD
ENDBRANCH  24  28
ENDBRANCH  18  20
ENDBRANCH  17  19
ENDBRANCH   1  17
TORSDOF 10
ENDMDL
MODEL 3
REMARK VINA RESULT:    -7.540      0.832     11.351
REMARK INTER + INTRA:         -12.180
REMARK INTER:                 -11.403
REMARK INTRA:                  -0.777
REMARK UNBOUND:                -0.673
REMARK  Name = 969516
REMARK  12 active torsions:
REMARK  status: ('A' for Active; 'I' for Inactive)
REMARK    1  A    between atoms: O_1  and  C_12
REMARK    2  A    between atoms: O_1  and  C_26
REMARK    3  A    between atoms: O_2  and  C_13
REMARK    4  A    between atoms: O_2  and  C_27
REMARK    5  A    between atoms: O_3  and  C_18
REMARK    6  A    between atoms: O_4  and  C_19
REMARK    7  A    between atoms: C_7  and  C_16
REMARK    8  A    between atoms: C_8  and  C_17
REMARK    9  A    between atoms: C_9  and  C_20
REMARK   10  A    between atoms: C_9  and  C_21
REMARK   11  A    between atoms: C_20  and  C_24
REMARK   12  A    between atoms: C_21  and  C_25
REMARK                            x       y       z     vdW  Elec       q    Type
REMARK                         _______ _______ _______ _____ _____    ______ ____
ROOT
ATOM      1  C   UNL     1     121.237   1.564  37.717  0.00  0.00    +0.000 C 
ENDROOT
BRANCH   1   3
ATOM      2  O   UNL     1     120.193   0.796  39.749  0.00  0.00    +0.000 OA
ATOM      3  C   UNL     1     120.330   0.666  38.536  0.00  0.00    +0.000 C 
BRANCH   3   5
ATOM      4  C   UNL     1     119.347  -1.575  38.294  0.00  0.00    +0.000 C 
ATOM      5  C   UNL     1     119.572  -0.365  37.766  0.00  0.00    +0.000 C 
BRANCH   4   6
ATOM      6  C   UNL     1     118.621  -2.663  37.613  0.00  0.00    +0.000 A 
ATOM      7  C   UNL     1     118.809  -3.971  38.033  0.00  0.00    +0.000 A 
ATOM      8  C   UNL     1     118.122  -4.999  37.388  0.00  0.00    +0.000 A 
ATOM      9  C   UNL     1     117.767  -2.357  36.567  0.00  0.00    +0.000 A 
ATOM     10  C   UNL     1     117.259  -4.708  36.333  0.00  0.00    +0.000 A 
ATOM     11  C   UNL     1     117.081  -3.387  35.922  0.00  0.00    +0.000 A 
BRANCH   8  12
ATOM     12  O   UNL     1     118.304  -6.286  37.799  0.00  0.00    +0.000 OA
ATOM     13  C   UNL     1     119.643  -6.699  38.065  0.00  0.00    +0.000 C 
ENDBRANCH   8  12
BRANCH  10  14
ATOM     14  O   UNL     1     116.583  -5.704  35.696  0.00  0.00    +0.000 OA
ATOM     15  H   UNL     1     117.217  -6.211  35.161  0.00  0.00    +0.000 HD
ENDBRANCH  10  14
ENDBRANCH   4   6
ENDBRANCH   3   5
ENDBRANCH   1   3
BRANCH   1  17
ATOM     16  O   UNL     1     123.271   0.271  37.666  0.00  0.00    +0.000 OA
ATOM     17  C   UNL     1     122.723   1.342  37.917  0.00  0.00    +0.000 C 
BRANCH  17  19
ATOM     18  C   UNL     1     122.862   3.640  38.784  0.00  0.00    +0.000 C 
ATOM     19  C   UNL     1     123.497   2.525  38.396  0.00  0.00    +0.000 C 
BRANCH  18  20
ATOM     20  C   UNL     1     123.531   4.862  39.262  0.00  0.00    +0.000 A 
ATOM     21  C   UNL     1     124.896   5.006  39.074  0.00  0.00    +0.000 A 
ATOM     22  C   UNL     1     125.530   6.163  39.528  0.00  0.00    +0.000 A 
ATOM     23  C   UNL     1     122.782   5.844  39.890  0.00  0.00    +0.000 A 
ATOM     24  C   UNL     1     124.789   7.160  40.162  0.00  0.00    +0.000 A 
ATOM     25  C   UNL     1     123.416   7.001  40.344  0.00  0.00    +0.000 A 
BRANCH  22  26
ATOM     26  O   UNL     1     126.872   6.308  39.343  0.00  0.00    +0.000 OA
ATOM     27  C   UNL     1     127.401   5.903  38.082  0.00  0.00    +0.000 C 
ENDBRANCH  22  26
BRANCH  24  28
ATOM     28  O   UNL     1     125.396   8.296  40.607  0.00  0.00    +0.000 OA
ATOM     29  H   UNL     1     126.230   8.058  41.046  0.00  0.00    +0.000 HD
ENDBRANCH  24  28
ENDBRANCH  18  20
ENDBRANCH  17  19
ENDBRANCH   1  17
TORSDOF 10
ENDMDL
MODEL 4
REMARK VINA RESULT:    -7.524      2.789     10.467
REMARK INTER + INTRA:         -12.156
REMARK INTER:                 -11.337
REMARK INTRA:                  -0.819
REMARK UNBOUND:                -0.673
REMARK  Name = 969516
REMARK  12 active torsions:
REMARK  status: ('A' for Active; 'I' for Inactive)
REMARK    1  A    between atoms: O_1  and  C_12
REMARK    2  A    between atoms: O_1  and  C_26
REMARK    3  A    between atoms: O_2  and  C_13
REMARK    4  A    between atoms: O_2  and  C_27
REMARK    5  A    between atoms: O_3  and  C_18
REMARK    6  A    between atoms: O_4  and  C_19
REMARK    7  A    between atoms: C_7  and  C_16
REMARK    8  A    between atoms: C_8  and  C_17
REMARK    9  A    between atoms: C_9  and  C_20
REMARK   10  A    between atoms: C_9  and  C_21
REMARK   11  A    between atoms: C_20  and  C_24
REMARK   12  A    between atoms: C_21  and  C_25
REMARK                            x       y       z     vdW  Elec       q    Type
REMARK                         _______ _______ _______ _____ _____    ______ ____
ROOT
ATOM      1  C   UNL     1     119.684  -0.752  37.902  0.00  0.00    +0.000 C 
ENDROOT
BRANCH   1   3
ATOM      2  O   UNL     1     117.490  -1.579  38.457  0.00  0.00    +0.000 OA
ATOM      3  C   UNL     1     118.656  -1.834  38.167  0.00  0.00    +0.000 C 
BRANCH   3   5
ATOM      4  C   UNL     1     120.046  -3.743  38.851  0.00  0.00    +0.000 C 
ATOM      5  C   UNL     1     119.137  -3.238  38.007  0.00  0.00    +0.000 C 
BRANCH   4   6
ATOM      6  C   UNL     1     120.593  -5.110  38.772  0.00  0.00    +0.000 A 
ATOM      7  C   UNL     1     121.603  -5.488  39.643  0.00  0.00    +0.000 A 
ATOM      8  C   UNL     1     122.120  -6.781  39.568  0.00  0.00    +0.000 A 
ATOM      9  C   UNL     1     120.087  -5.989  37.829  0.00  0.00    +0.000 A 
ATOM     10  C   UNL     1     121.622  -7.678  38.624  0.00  0.00    +0.000 A 
ATOM     11  C   UNL     1     120.605  -7.283  37.754  0.00  0.00    +0.000 A 
BRANCH   8  12
ATOM     12  O   UNL     1     123.112  -7.156  40.423  0.00  0.00    +0.000 OA
ATOM     13  C   UNL     1     124.385  -6.535  40.252  0.00  0.00    +0.000 C 
ENDBRANCH   8  12
BRANCH  10  14
ATOM     14  O   UNL     1     122.118  -8.944  38.542  0.00  0.00    +0.000 OA
ATOM     15  H   UNL     1     121.476  -9.551  38.948  0.00  0.00    +0.000 HD
ENDBRANCH  10  14
ENDBRANCH   4   6
ENDBRANCH   3   5
ENDBRANCH   1   3
BRANCH   1  17
ATOM     16  O   UNL     1     120.141  -0.490  40.254  0.00  0.00    +0.000 OA
ATOM     17  C   UNL     1     120.168  -0.001  39.127  0.00  0.00    +0.000 C 
BRANCH  17  19
ATOM     18  C   UNL     1     121.620   1.556  37.895  0.00  0.00    +0.000 C 
ATOM     19  C   UNL     1     120.727   1.360  38.875  0.00  0.00    +0.000 C 
BRANCH  18  20
ATOM     20  C   UNL     1     122.238   2.854  37.573  0.00  0.00    +0.000 A 
ATOM     21  C   UNL     1     122.739   3.640  38.597  0.00  0.00    +0.000 A 
ATOM     22  C   UNL     1     123.323   4.870  38.292  0.00  0.00    +0.000 A 
ATOM     23  C   UNL     1     122.304   3.264  36.250  0.00  0.00    +0.000 A 
ATOM     24  C   UNL     1     123.398   5.296  36.966  0.00  0.00    +0.000 A 
ATOM     25  C   UNL     1     122.888   4.493  35.945  0.00  0.00    +0.000 A 
BRANCH  22  26
ATOM     26  O   UNL     1     123.818   5.644  39.297  0.00  0.00    +0.000 OA
ATOM     27  C   UNL     1     123.864   5.065  40.600  0.00  0.00    +0.000 C 
ENDBRANCH  22  26
BRANCH  24  28
ATOM     28  O   UNL     1     123.967   6.493  36.654  0.00  0.00    +0.000 OA
ATOM     29  H   UNL     1     123.462   7.205  37.082  0.00  0.00    +0.000 HD
ENDBRANCH  24  28
ENDBRANCH  18  20
ENDBRANCH  17  19
ENDBRANCH   1  17
TORSDOF 10
ENDMDL
MODEL 5
REMARK VINA RESULT:    -7.521      2.729     10.229
REMARK INTER + INTRA:         -12.151
REMARK INTER:                 -11.314
REMARK INTRA:                  -0.838
REMARK UNBOUND:                -0.673
REMARK  Name = 969516
REMARK  12 active torsions:
REMARK  status: ('A' for Active; 'I' for Inactive)
REMARK    1  A    between atoms: O_1  and  C_12
REMARK    2  A    between atoms: O_1  and  C_26
REMARK    3  A    between atoms: O_2  and  C_13
REMARK    4  A    between atoms: O_2  and  C_27
REMARK    5  A    between atoms: O_3  and  C_18
REMARK    6  A    between atoms: O_4  and  C_19
REMARK    7  A    between atoms: C_7  and  C_16
REMARK    8  A    between atoms: C_8  and  C_17
REMARK    9  A    between atoms: C_9  and  C_20
REMARK   10  A    between atoms: C_9  and  C_21
REMARK   11  A    between atoms: C_20  and  C_24
REMARK   12  A    between atoms: C_21  and  C_25
REMARK                            x       y       z     vdW  Elec       q    Type
REMARK                         _______ _______ _______ _____ _____    ______ ____
ROOT
ATOM      1  C   UNL     1     119.248  -0.592  37.679  0.00  0.00    +0.000 C 
ENDROOT
BRANCH   1   3
ATOM      2  O   UNL     1     117.244  -1.926  37.599  0.00  0.00    +0.000 OA
ATOM      3  C   UNL     1     118.456  -1.879  37.790  0.00  0.00    +0.000 C 
BRANCH   3   5
ATOM      4  C   UNL     1     120.114  -3.110  39.126  0.00  0.00    +0.000 C 
ATOM      5  C   UNL     1     119.250  -3.104  38.102  0.00  0.00    +0.000 C 
BRANCH   4   6
ATOM      6  C   UNL     1     120.951  -4.261  39.509  0.00  0.00    +0.000 A 
ATOM      7  C   UNL     1     120.701  -5.500  38.941  0.00  0.00    +0.000 A 
ATOM      8  C   UNL     1     121.494  -6.589  39.304  0.00  0.00    +0.000 A 
ATOM      9  C   UNL     1     121.969  -4.081  40.430  0.00  0.00    +0.000 A 
ATOM     10  C   UNL     1     122.523  -6.424  40.230  0.00  0.00    +0.000 A 
ATOM     11  C   UNL     1     122.762  -5.171  40.794  0.00  0.00    +0.000 A 
BRANCH   8  12
ATOM     12  O   UNL     1     121.252  -7.809  38.747  0.00  0.00    +0.000 OA
ATOM     13  C   UNL     1     121.692  -8.008  37.405  0.00  0.00    +0.000 C 
ENDBRANCH   8  12
BRANCH  10  14
ATOM     14  O   UNL     1     123.304  -7.481  40.592  0.00  0.00    +0.000 OA
ATOM     15  H   UNL     1     123.463  -7.430  41.550  0.00  0.00    +0.000 HD
ENDBRANCH  10  14
ENDBRANCH   4   6
ENDBRANCH   3   5
ENDBRANCH   1   3
BRANCH   1  17
ATOM     16  O   UNL     1     118.581   0.101  39.890  0.00  0.00    +0.000 OA
ATOM     17  C   UNL     1     119.383   0.201  38.965  0.00  0.00    +0.000 C 
BRANCH  17  19
ATOM     18  C   UNL     1     121.344   1.314  37.980  0.00  0.00    +0.000 C 
ATOM     19  C   UNL     1     120.583   1.084  39.059  0.00  0.00    +0.000 C 
BRANCH  18  20
ATOM     20  C   UNL     1     122.550   2.159  37.971  0.00  0.00    +0.000 A 
ATOM     21  C   UNL     1     122.452   3.488  38.347  0.00  0.00    +0.000 A 
ATOM     22  C   UNL     1     123.595   4.288  38.337  0.00  0.00    +0.000 A 
ATOM     23  C   UNL     1     123.761   1.606  37.584  0.00  0.00    +0.000 A 
ATOM     24  C   UNL     1     124.820   3.747  37.951  0.00  0.00    +0.000 A 
ATOM     25  C   UNL     1     124.904   2.406  37.574  0.00  0.00    +0.000 A 
BRANCH  22  26
ATOM     26  O   UNL     1     123.501   5.595  38.709  0.00  0.00    +0.000 OA
ATOM     27  C   UNL     1     123.523   5.875  40.107  0.00  0.00    +0.000 C 
ENDBRANCH  22  26
BRANCH  24  28
ATOM     28  O   UNL     1     125.945   4.516  37.939  0.00  0.00    +0.000 OA
ATOM     29  H   UNL     1     126.675   4.016  38.340  0.00  0.00    +0.000 HD
ENDBRANCH  24  28
ENDBRANCH  18  20
ENDBRANCH  17  19
ENDBRANCH   1  17
TORSDOF 10
ENDMDL
MODEL 6
REMARK VINA RESULT:    -7.020      1.931      3.313
REMARK INTER + INTRA:         -11.386
REMARK INTER:                 -10.560
REMARK INTRA:                  -0.826
REMARK UNBOUND:                -0.673
REMARK  Name = 969516
REMARK  12 active torsions:
REMARK  status: ('A' for Active; 'I' for Inactive)
REMARK    1  A    between atoms: O_1  and  C_12
REMARK    2  A    between atoms: O_1  and  C_26
REMARK    3  A    between atoms: O_2  and  C_13
REMARK    4  A    between atoms: O_2  and  C_27
REMARK    5  A    between atoms: O_3  and  C_18
REMARK    6  A    between atoms: O_4  and  C_19
REMARK    7  A    between atoms: C_7  and  C_16
REMARK    8  A    between atoms: C_8  and  C_17
REMARK    9  A    between atoms: C_9  and  C_20
REMARK   10  A    between atoms: C_9  and  C_21
REMARK   11  A    between atoms: C_20  and  C_24
REMARK   12  A    between atoms: C_21  and  C_25
REMARK                            x       y       z     vdW  Elec       q    Type
REMARK                         _______ _______ _______ _____ _____    ______ ____
ROOT
ATOM      1  C   UNL     1     123.996   2.560  36.509  0.00  0.00    +0.000 C 
ENDROOT
BRANCH   1   3
ATOM      2  O   UNL     1     122.179   3.946  35.744  0.00  0.00    +0.000 OA
ATOM      3  C   UNL     1     123.105   3.786  36.535  0.00  0.00    +0.000 C 
BRANCH   3   5
ATOM      4  C   UNL     1     124.617   4.852  38.155  0.00  0.00    +0.000 C 
ATOM      5  C   UNL     1     123.392   4.773  37.619  0.00  0.00    +0.000 C 
BRANCH   4   6
ATOM      6  C   UNL     1     125.000   5.782  39.233  0.00  0.00    +0.000 A 
ATOM      7  C   UNL     1     126.342   6.045  39.458  0.00  0.00    +0.000 A 
ATOM      8  C   UNL     1     126.703   6.924  40.479  0.00  0.00    +0.000 A 
ATOM      9  C   UNL     1     124.010   6.372  40.002  0.00  0.00    +0.000 A 
ATOM     10  C   UNL     1     125.718   7.525  41.262  0.00  0.00    +0.000 A 
ATOM     11  C   UNL     1     124.372   7.250  41.024  0.00  0.00    +0.000 A 
BRANCH   8  12
ATOM     12  O   UNL     1     128.021   7.185  40.702  0.00  0.00    +0.000 OA
ATOM     13  C   UNL     1     128.965   6.524  39.862  0.00  0.00    +0.000 C 
ENDBRANCH   8  12
BRANCH  10  14
ATOM     14  O   UNL     1     126.059   8.386  42.261  0.00  0.00    +0.000 OA
ATOM     15  H   UNL     1     127.029   8.413  42.325  0.00  0.00    +0.000 HD
ENDBRANCH  10  14
ENDBRANCH   4   6
ENDBRANCH   3   5
ENDBRANCH   1   3
BRANCH   1  17
ATOM     16  O   UNL     1     124.737   1.114  38.290  0.00  0.00    +0.000 OA
ATOM     17  C   UNL     1     123.798   1.588  37.656  0.00  0.00    +0.000 C 
BRANCH  17  19
ATOM     18  C   UNL     1     121.886   0.046  37.794  0.00  0.00    +0.000 C 
ATOM     19  C   UNL     1     122.380   1.274  38.002  0.00  0.00    +0.000 C 
BRANCH  18  20
ATOM     20  C   UNL     1     120.502  -0.362  38.090  0.00  0.00    +0.000 A 
ATOM     21  C   UNL     1     119.981  -1.492  37.481  0.00  0.00    +0.000 A 
ATOM     22  C   UNL     1     118.670  -1.877  37.761  0.00  0.00    +0.000 A 
ATOM     23  C   UNL     1     119.747   0.394  38.973  0.00  0.00    +0.000 A 
ATOM     24  C   UNL     1     117.898  -1.127  38.648  0.00  0.00    +0.000 A 
ATOM     25  C   UNL     1     118.436   0.009  39.254  0.00  0.00    +0.000 A 
BRANCH  22  26
ATOM     26  O   UNL     1     118.156  -2.988  37.165  0.00  0.00    +0.000 OA
ATOM     27  C   UNL     1     118.677  -4.249  37.583  0.00  0.00    +0.000 C 
ENDBRANCH  22  26
BRANCH  24  28
ATOM     28  O   UNL     1     116.617  -1.493  38.932  0.00  0.00    +0.000 OA
ATOM     29  H   UNL     1     116.383  -2.268  38.394  0.00  0.00    +0.000 HD
ENDBRANCH  24  28
ENDBRANCH  18  20
ENDBRANCH  17  19
ENDBRANCH   1  17
TORSDOF 10
ENDMDL
MODEL 7
REMARK VINA RESULT:    -6.993      2.459      9.697
REMARK INTER + INTRA:         -11.345
REMARK INTER:                  -9.882
REMARK INTRA:                  -1.463
REMARK UNBOUND:                -0.673
REMARK  Name = 969516
REMARK  12 active torsions:
REMARK  status: ('A' for Active; 'I' for Inactive)
REMARK    1  A    between atoms: O_1  and  C_12
REMARK    2  A    between atoms: O_1  and  C_26
REMARK    3  A    between atoms: O_2  and  C_13
REMARK    4  A    between atoms: O_2  and  C_27
REMARK    5  A    between atoms: O_3  and  C_18
REMARK    6  A    between atoms: O_4  and  C_19
REMARK    7  A    between atoms: C_7  and  C_16
REMARK    8  A    between atoms: C_8  and  C_17
REMARK    9  A    between atoms: C_9  and  C_20
REMARK   10  A    between atoms: C_9  and  C_21
REMARK   11  A    between atoms: C_20  and  C_24
REMARK   12  A    between atoms: C_21  and  C_25
REMARK                            x       y       z     vdW  Elec       q    Type
REMARK                         _______ _______ _______ _____ _____    ______ ____
ROOT
ATOM      1  C   UNL     1     125.544  -1.269  38.044  0.00  0.00    +0.000 C 
ENDROOT
BRANCH   1   3
ATOM      2  O   UNL     1     124.924  -2.210  35.914  0.00  0.00    +0.000 OA
ATOM      3  C   UNL     1     124.570  -1.828  37.026  0.00  0.00    +0.000 C 
BRANCH   3   5
ATOM      4  C   UNL     1     122.409  -0.829  37.642  0.00  0.00    +0.000 C 
ATOM      5  C   UNL     1     123.150  -1.933  37.478  0.00  0.00    +0.000 C 
BRANCH   4   6
ATOM      6  C   UNL     1     121.005  -0.823  38.093  0.00  0.00    +0.000 A 
ATOM      7  C   UNL     1     120.224  -1.950  37.894  0.00  0.00    +0.000 A 
ATOM      8  C   UNL     1     118.896  -1.943  38.321  0.00  0.00    +0.000 A 
ATOM      9  C   UNL     1     120.495   0.310  38.706  0.00  0.00    +0.000 A 
ATOM     10  C   UNL     1     118.368  -0.810  38.939  0.00  0.00    +0.000 A 
ATOM     11  C   UNL     1     119.167   0.316  39.132  0.00  0.00    +0.000 A 
BRANCH   8  12
ATOM     12  O   UNL     1     118.125  -3.050  38.127  0.00  0.00    +0.000 OA
ATOM     13  C   UNL     1     118.776  -4.215  37.625  0.00  0.00    +0.000 C 
ENDBRANCH   8  12
BRANCH  10  14
ATOM     14  O   UNL     1     117.072  -0.793  39.360  0.00  0.00    +0.000 OA
ATOM     15  H   UNL     1     116.957  -0.039  39.964  0.00  0.00    +0.000 HD
ENDBRANCH  10  14
ENDBRANCH   4   6
ENDBRANCH   3   5
ENDBRANCH   1   3
BRANCH   1  17
ATOM     16  O   UNL     1     127.047   0.220  36.888  0.00  0.00    +0.000 OA
ATOM     17  C   UNL     1     126.136   0.084  37.701  0.00  0.00    +0.000 C 
BRANCH  17  19
ATOM     18  C   UNL     1     124.719   2.096  37.697  0.00  0.00    +0.000 C 
ATOM     19  C   UNL     1     125.510   1.257  38.381  0.00  0.00    +0.000 C 
BRANCH  18  20
ATOM     20  C   UNL     1     124.065   3.284  38.271  0.00  0.00    +0.000 A 
ATOM     21  C   UNL     1     124.811   4.431  38.489  0.00  0.00    +0.000 A 
ATOM     22  C   UNL     1     124.191   5.556  39.033  0.00  0.00    +0.000 A 
ATOM     23  C   UNL     1     122.716   3.231  38.582  0.00  0.00    +0.000 A 
ATOM     24  C   UNL     1     122.834   5.518  39.352  0.00  0.00    +0.000 A 
ATOM     25  C   UNL     1     122.096   4.356  39.126  0.00  0.00    +0.000 A 
BRANCH  22  26
ATOM     26  O   UNL     1     124.921   6.686  39.248  0.00  0.00    +0.000 OA
ATOM     27  C   UNL     1     125.683   6.747  40.452  0.00  0.00    +0.000 C 
ENDBRANCH  22  26
BRANCH  24  28
ATOM     28  O   UNL     1     122.216   6.611  39.882  0.00  0.00    +0.000 OA
ATOM     29  H   UNL     1     121.876   7.165  39.158  0.00  0.00    +0.000 HD
ENDBRANCH  24  28
ENDBRANCH  18  20
ENDBRANCH  17  19
ENDBRANCH   1  17
TORSDOF 10
ENDMDL
MODEL 8
REMARK VINA RESULT:    -6.806      5.866      8.145
REMARK INTER + INTRA:         -11.060
REMARK INTER:                  -9.618
REMARK INTRA:                  -1.442
REMARK UNBOUND:                -0.673
REMARK  Name = 969516
REMARK  12 active torsions:
REMARK  status: ('A' for Active; 'I' for Inactive)
REMARK    1  A    between atoms: O_1  and  C_12
REMARK    2  A    between atoms: O_1  and  C_26
REMARK    3  A    between atoms: O_2  and  C_13
REMARK    4  A    between atoms: O_2  and  C_27
REMARK    5  A    between atoms: O_3  and  C_18
REMARK    6  A    between atoms: O_4  and  C_19
REMARK    7  A    between atoms: C_7  and  C_16
REMARK    8  A    between atoms: C_8  and  C_17
REMARK    9  A    between atoms: C_9  and  C_20
REMARK   10  A    between atoms: C_9  and  C_21
REMARK   11  A    between atoms: C_20  and  C_24
REMARK   12  A    between atoms: C_21  and  C_25
REMARK                            x       y       z     vdW  Elec       q    Type
REMARK                         _______ _______ _______ _____ _____    ______ ____
ROOT
ATOM      1  C   UNL     1     121.036  -7.589  37.443  0.00  0.00    +0.000 C 
ENDROOT
BRANCH   1   3
ATOM      2  O   UNL     1     122.830  -9.146  37.844  0.00  0.00    +0.000 OA
ATOM      3  C   UNL     1     122.280  -8.092  38.148  0.00  0.00    +0.000 C 
BRANCH   3   5
ATOM      4  C   UNL     1     123.583  -6.141  38.886  0.00  0.00    +0.000 C 
ATOM      5  C   UNL     1     122.827  -7.198  39.212  0.00  0.00    +0.000 C 
BRANCH   4   6
ATOM      6  C   UNL     1     124.178  -5.206  39.858  0.00  0.00    +0.000 A 
ATOM      7  C   UNL     1     125.488  -4.789  39.683  0.00  0.00    +0.000 A 
ATOM      8  C   UNL     1     126.051  -3.905  40.604  0.00  0.00    +0.000 A 
ATOM      9  C   UNL     1     123.417  -4.765  40.928  0.00  0.00    +0.000 A 
ATOM     10  C   UNL     1     125.298  -3.453  41.686  0.00  0.00    +0.000 A 
ATOM     11  C   UNL     1     123.981  -3.882  41.849  0.00  0.00    +0.000 A 
BRANCH   8  12
ATOM     12  O   UNL     1     127.339  -3.493  40.435  0.00  0.00    +0.000 OA
ATOM     13  C   UNL     1     128.346  -4.502  40.410  0.00  0.00    +0.000 C 
ENDBRANCH   8  12
BRANCH  10  14
ATOM     14  O   UNL     1     125.838  -2.589  42.591  0.00  0.00    +0.000 OA
ATOM     15  H   UNL     1     126.719  -2.916  42.840  0.00  0.00    +0.000 HD
ENDBRANCH  10  14
ENDBRANCH   4   6
ENDBRANCH   3   5
ENDBRANCH   1   3
BRANCH   1  17
ATOM     16  O   UNL     1     119.381  -8.203  39.084  0.00  0.00    +0.000 OA
ATOM     17  C   UNL     1     119.837  -7.341  38.337  0.00  0.00    +0.000 C 
BRANCH  17  19
ATOM     18  C   UNL     1     120.062  -4.893  38.446  0.00  0.00    +0.000 C 
ATOM     19  C   UNL     1     119.268  -5.962  38.291  0.00  0.00    +0.000 C 
BRANCH  18  20
ATOM     20  C   UNL     1     119.599  -3.496  38.427  0.00  0.00    +0.000 A 
ATOM     21  C   UNL     1     118.773  -3.067  37.401  0.00  0.00    +0.000 A 
ATOM     22  C   UNL     1     118.335  -1.743  37.384  0.00  0.00    +0.000 A 
ATOM     23  C   UNL     1     119.999  -2.635  39.438  0.00  0.00    +0.000 A 
ATOM     24  C   UNL     1     118.729  -0.865  38.393  0.00  0.00    +0.000 A 
ATOM     25  C   UNL     1     119.561  -1.311  39.420  0.00  0.00    +0.000 A 
BRANCH  22  26
ATOM     26  O   UNL     1     117.521  -1.320  36.377  0.00  0.00    +0.000 OA
ATOM     27  C   UNL     1     116.575  -2.258  35.869  0.00  0.00    +0.000 C 
ENDBRANCH  22  26
BRANCH  24  28
ATOM     28  O   UNL     1     118.306   0.430  38.389  0.00  0.00    +0.000 OA
ATOM     29  H   UNL     1     119.074   1.013  38.263  0.00  0.00    +0.000 HD
ENDBRANCH  24  28
ENDBRANCH  18  20
ENDBRANCH  17  19
ENDBRANCH   1  17
TORSDOF 10
ENDMDL
MODEL 9
REMARK VINA RESULT:    -6.577      2.910      4.255
REMARK INTER + INTRA:         -10.710
REMARK INTER:                  -9.607
REMARK INTRA:                  -1.103
REMARK UNBOUND:                -0.673
REMARK  Name = 969516
REMARK  12 active torsions:
REMARK  status: ('A' for Active; 'I' for Inactive)
REMARK    1  A    between atoms: O_1  and  C_12
REMARK    2  A    between atoms: O_1  and  C_26
REMARK    3  A    between atoms: O_2  and  C_13
REMARK    4  A    between atoms: O_2  and  C_27
REMARK    5  A    between atoms: O_3  and  C_18
REMARK    6  A    between atoms: O_4  and  C_19
REMARK    7  A    between atoms: C_7  and  C_16
REMARK    8  A    between atoms: C_8  and  C_17
REMARK    9  A    between atoms: C_9  and  C_20
REMARK   10  A    between atoms: C_9  and  C_21
REMARK   11  A    between atoms: C_20  and  C_24
REMARK   12  A    between atoms: C_21  and  C_25
REMARK                            x       y       z     vdW  Elec       q    Type
REMARK                         _______ _______ _______ _____ _____    ______ ____
ROOT
ATOM      1  C   UNL     1     125.134  -2.101  36.799  0.00  0.00    +0.000 C 
ENDROOT
BRANCH   1   3
ATOM      2  O   UNL     1     125.517  -1.612  39.128  0.00  0.00    +0.000 OA
ATOM      3  C   UNL     1     125.293  -1.187  37.998  0.00  0.00    +0.000 C 
BRANCH   3   5
ATOM      4  C   UNL     1     124.016   0.891  37.677  0.00  0.00    +0.000 C 
ATOM      5  C   UNL     1     125.206   0.277  37.713  0.00  0.00    +0.000 C 
BRANCH   4   6
ATOM      6  C   UNL     1     123.822   2.325  37.394  0.00  0.00    +0.000 A 
ATOM      7  C   UNL     1     124.743   3.242  37.876  0.00  0.00    +0.000 A 
ATOM      8  C   UNL     1     124.558   4.598  37.608  0.00  0.00    +0.000 A 
ATOM      9  C   UNL     1     122.724   2.727  36.653  0.00  0.00    +0.000 A 
ATOM     10  C   UNL     1     123.457   5.019  36.864  0.00  0.00    +0.000 A 
ATOM     11  C   UNL     1     122.539   4.084  36.385  0.00  0.00    +0.000 A 
BRANCH   8  12
ATOM     12  O   UNL     1     125.461   5.503  38.080  0.00  0.00    +0.000 OA
ATOM     13  C   UNL     1     125.323   5.907  39.441  0.00  0.00    +0.000 C 
ENDBRANCH   8  12
BRANCH  10  14
ATOM     14  O   UNL     1     123.267   6.341  36.595  0.00  0.00    +0.000 OA
ATOM     15  H   UNL     1     123.996   6.646  36.028  0.00  0.00    +0.000 HD
ENDBRANCH  10  14
ENDBRANCH   4   6
ENDBRANCH   3   5
ENDBRANCH   1   3
BRANCH   1  17
ATOM     16  O   UNL     1     124.357  -4.380  36.692  0.00  0.00    +0.000 OA
ATOM     17  C   UNL     1     124.109  -3.206  36.957  0.00  0.00    +0.000 C 
BRANCH  17  19
ATOM     18  C   UNL     1     121.665  -2.977  36.784  0.00  0.00    +0.000 C 
ATOM     19  C   UNL     1     122.783  -2.788  37.500  0.00  0.00    +0.000 C 
BRANCH  18  20
ATOM     20  C   UNL     1     120.313  -2.592  37.224  0.00  0.00    +0.000 A 
ATOM     21  C   UNL     1     120.156  -1.491  38.050  0.00  0.00    +0.000 A 
ATOM     22  C   UNL     1     118.876  -1.127  38.467  0.00  0.00    +0.000 A 
ATOM     23  C   UNL     1     119.225  -3.339  36.803  0.00  0.00    +0.000 A 
ATOM     24  C   UNL     1     117.771  -1.869  38.052  0.00  0.00    +0.000 A 
ATOM     25  C   UNL     1     117.944  -2.975  37.220  0.00  0.00    +0.000 A 
BRANCH  22  26
ATOM     26  O   UNL     1     118.719  -0.044  39.279  0.00  0.00    +0.000 OA
ATOM     27  C   UNL     1     119.881   0.736  39.552  0.00  0.00    +0.000 C 
ENDBRANCH  22  26
BRANCH  24  28
ATOM     28  O   UNL     1     116.515  -1.522  38.451  0.00  0.00    +0.000 OA
ATOM     29  H   UNL     1     116.428  -1.688  39.405  0.00  0.00    +0.000 HD
ENDBRANCH  24  28
ENDBRANCH  18  20
ENDBRANCH  17  19
ENDBRANCH   1  17
TORSDOF 10
ENDMDL
