MODEL 1
REMARK VINA RESULT:    -5.779      0.000      0.000
REMARK INTER + INTRA:          -9.793
REMARK INTER:                  -8.820
REMARK INTRA:                  -0.972
REMARK UNBOUND:                -0.972
REMARK  Name = 969516
REMARK  12 active torsions:
REMARK  status: ('A' for Active; 'I' for Inactive)
REMARK    1  A    between atoms: O_1  and  C_12
REMARK    2  A    between atoms: O_1  and  C_26
REMARK    3  A    between atoms: O_2  and  C_13
REMARK    4  A    between atoms: O_2  and  C_27
REMARK    5  A    between atoms: O_3  and  C_18
REMARK    6  A    between atoms: O_4  and  C_19
REMARK    7  A    between atoms: C_7  and  C_16
REMARK    8  A    between atoms: C_8  and  C_17
REMARK    9  A    between atoms: C_9  and  C_20
REMARK   10  A    between atoms: C_9  and  C_21
REMARK   11  A    between atoms: C_20  and  C_24
REMARK   12  A    between atoms: C_21  and  C_25
REMARK                            x       y       z     vdW  Elec       q    Type
REMARK                         _______ _______ _______ _____ _____    ______ ____
ROOT
ATOM      1  C   UNL     1       2.329  -9.941  -7.133  0.00  0.00    +0.000 C 
ENDROOT
BRANCH   1   3
ATOM      2  O   UNL     1       3.573 -11.628  -5.945  0.00  0.00    +0.000 OA
ATOM      3  C   UNL     1       3.034 -10.525  -5.926  0.00  0.00    +0.000 C 
BRANCH   3   5
ATOM      4  C   UNL     1       3.724  -8.479  -4.748  0.00  0.00    +0.000 C 
ATOM      5  C   UNL     1       3.076  -9.651  -4.715  0.00  0.00    +0.000 C 
BRANCH   4   6
ATOM      6  C   UNL     1       3.833  -7.551  -3.608  0.00  0.00    +0.000 A 
ATOM      7  C   UNL     1       4.833  -7.746  -2.668  0.00  0.00    +0.000 A 
ATOM      8  C   UNL     1       4.936  -6.868  -1.589  0.00  0.00    +0.000 A 
ATOM      9  C   UNL     1       2.934  -6.503  -3.498  0.00  0.00    +0.000 A 
ATOM     10  C   UNL     1       4.038  -5.809  -1.464  0.00  0.00    +0.000 A 
ATOM     11  C   UNL     1       3.037  -5.625  -2.418  0.00  0.00    +0.000 A 
BRANCH   8  12
ATOM     12  O   UNL     1       5.917  -7.057  -0.664  0.00  0.00    +0.000 OA
ATOM     13  C   UNL     1       5.761  -8.155   0.233  0.00  0.00    +0.000 C 
ENDBRANCH   8  12
BRANCH  10  14
ATOM     14  O   UNL     1       4.129  -4.944  -0.415  0.00  0.00    +0.000 OA
ATOM     15  H   UNL     1       4.052  -5.454   0.409  0.00  0.00    +0.000 HD
ENDBRANCH  10  14
ENDBRANCH   4   6
ENDBRANCH   3   5
ENDBRANCH   1   3
BRANCH   1  17
ATOM     16  O   UNL     1       3.397 -10.520  -9.216  0.00  0.00    +0.000 OA
ATOM     17  C   UNL     1       3.212  -9.680  -8.338  0.00  0.00    +0.000 C 
BRANCH  17  19
ATOM     18  C   UNL     1       3.949  -7.704  -9.605  0.00  0.00    +0.000 C 
ATOM     19  C   UNL     1       3.811  -8.316  -8.420  0.00  0.00    +0.000 C 
BRANCH  18  20
ATOM     20  C   UNL     1       4.536  -6.366  -9.794  0.00  0.00    +0.000 A 
ATOM     21  C   UNL     1       4.840  -5.933 -11.074  0.00  0.00    +0.000 A 
ATOM     22  C   UNL     1       5.396  -4.666 -11.252  0.00  0.00    +0.000 A 
ATOM     23  C   UNL     1       4.772  -5.568  -8.686  0.00  0.00    +0.000 A 
ATOM     24  C   UNL     1       5.640  -3.850 -10.147  0.00  0.00    +0.000 A 
ATOM     25  C   UNL     1       5.328  -4.301  -8.864  0.00  0.00    +0.000 A 
BRANCH  22  26
ATOM     26  O   UNL     1       5.695  -4.236 -12.509  0.00  0.00    +0.000 OA
ATOM     27  C   UNL     1       5.013  -4.869 -13.590  0.00  0.00    +0.000 C 
ENDBRANCH  22  26
BRANCH  24  28
ATOM     28  O   UNL     1       6.181  -2.610 -10.307  0.00  0.00    +0.000 OA
ATOM     29  H   UNL     1       6.981  -2.541  -9.760  0.00  0.00    +0.000 HD
ENDBRANCH  24  28
ENDBRANCH  18  20
ENDBRANCH  17  19
ENDBRANCH   1  17
TORSDOF 10
ENDMDL
MODEL 2
REMARK VINA RESULT:    -5.739      0.458      8.002
REMARK INTER + INTRA:          -9.730
REMARK INTER:                  -8.730
REMARK INTRA:                  -1.000
REMARK UNBOUND:                -0.972
REMARK  Name = 969516
REMARK  12 active torsions:
REMARK  status: ('A' for Active; 'I' for Inactive)
REMARK    1  A    between atoms: O_1  and  C_12
REMARK    2  A    between atoms: O_1  and  C_26
REMARK    3  A    between atoms: O_2  and  C_13
REMARK    4  A    between atoms: O_2  and  C_27
REMARK    5  A    between atoms: O_3  and  C_18
REMARK    6  A    between atoms: O_4  and  C_19
REMARK    7  A    between atoms: C_7  and  C_16
REMARK    8  A    between atoms: C_8  and  C_17
REMARK    9  A    between atoms: C_9  and  C_20
REMARK   10  A    between atoms: C_9  and  C_21
REMARK   11  A    between atoms: C_20  and  C_24
REMARK   12  A    between atoms: C_21  and  C_25
REMARK                            x       y       z     vdW  Elec       q    Type
REMARK                         _______ _______ _______ _____ _____    ______ ____
ROOT
ATOM      1  C   UNL     1       2.228 -10.511  -7.110  0.00  0.00    +0.000 C 
ENDROOT
BRANCH   1   3
ATOM      2  O   UNL     1       3.002 -10.823  -9.371  0.00  0.00    +0.000 OA
ATOM      3  C   UNL     1       2.954 -10.103  -8.377  0.00  0.00    +0.000 C 
BRANCH   3   5
ATOM      4  C   UNL     1       3.687  -8.039  -9.496  0.00  0.00    +0.000 C 
ATOM      5  C   UNL     1       3.571  -8.744  -8.362  0.00  0.00    +0.000 C 
BRANCH   4   6
ATOM      6  C   UNL     1       4.289  -6.697  -9.589  0.00  0.00    +0.000 A 
ATOM      7  C   UNL     1       4.599  -6.178 -10.837  0.00  0.00    +0.000 A 
ATOM      8  C   UNL     1       5.169  -4.908 -10.924  0.00  0.00    +0.000 A 
ATOM      9  C   UNL     1       4.534  -5.982  -8.429  0.00  0.00    +0.000 A 
ATOM     10  C   UNL     1       5.423  -4.176  -9.765  0.00  0.00    +0.000 A 
ATOM     11  C   UNL     1       5.105  -4.712  -8.517  0.00  0.00    +0.000 A 
BRANCH   8  12
ATOM     12  O   UNL     1       5.475  -4.395 -12.149  0.00  0.00    +0.000 OA
ATOM     13  C   UNL     1       5.269  -5.242 -13.277  0.00  0.00    +0.000 C 
ENDBRANCH   8  12
BRANCH  10  14
ATOM     14  O   UNL     1       5.978  -2.934  -9.839  0.00  0.00    +0.000 OA
ATOM     15  H   UNL     1       6.301  -2.796 -10.746  0.00  0.00    +0.000 HD
ENDBRANCH  10  14
ENDBRANCH   4   6
ENDBRANCH   3   5
ENDBRANCH   1   3
BRANCH   1  17
ATOM     16  O   UNL     1       3.868 -11.743  -5.844  0.00  0.00    +0.000 OA
ATOM     17  C   UNL     1       3.116 -10.774  -5.909  0.00  0.00    +0.000 C 
BRANCH  17  19
ATOM     18  C   UNL     1       4.117  -8.975  -4.562  0.00  0.00    +0.000 C 
ATOM     19  C   UNL     1       3.056  -9.752  -4.823  0.00  0.00    +0.000 C 
BRANCH  18  20
ATOM     20  C   UNL     1       4.163  -7.948  -3.507  0.00  0.00    +0.000 A 
ATOM     21  C   UNL     1       5.151  -8.014  -2.538  0.00  0.00    +0.000 A 
ATOM     22  C   UNL     1       5.194  -7.041  -1.539  0.00  0.00    +0.000 A 
ATOM     23  C   UNL     1       3.216  -6.936  -3.505  0.00  0.00    +0.000 A 
ATOM     24  C   UNL     1       4.248  -6.016  -1.523  0.00  0.00    +0.000 A 
ATOM     25  C   UNL     1       3.259  -5.963  -2.505  0.00  0.00    +0.000 A 
BRANCH  22  26
ATOM     26  O   UNL     1       6.164  -7.103  -0.585  0.00  0.00    +0.000 OA
ATOM     27  C   UNL     1       5.992  -8.063   0.456  0.00  0.00    +0.000 C 
ENDBRANCH  22  26
BRANCH  24  28
ATOM     28  O   UNL     1       4.280  -5.059  -0.554  0.00  0.00    +0.000 OA
ATOM     29  H   UNL     1       3.763  -4.291  -0.850  0.00  0.00    +0.000 HD
ENDBRANCH  24  28
ENDBRANCH  18  20
ENDBRANCH  17  19
ENDBRANCH   1  17
TORSDOF 10
ENDMDL
MODEL 3
REMARK VINA RESULT:    -5.594      2.574      4.157
REMARK INTER + INTRA:          -9.509
REMARK INTER:                  -8.789
REMARK INTRA:                  -0.720
REMARK UNBOUND:                -0.972
REMARK  Name = 969516
REMARK  12 active torsions:
REMARK  status: ('A' for Active; 'I' for Inactive)
REMARK    1  A    between atoms: O_1  and  C_12
REMARK    2  A    between atoms: O_1  and  C_26
REMARK    3  A    between atoms: O_2  and  C_13
REMARK    4  A    between atoms: O_2  and  C_27
REMARK    5  A    between atoms: O_3  and  C_18
REMARK    6  A    between atoms: O_4  and  C_19
REMARK    7  A    between atoms: C_7  and  C_16
REMARK    8  A    between atoms: C_8  and  C_17
REMARK    9  A    between atoms: C_9  and  C_20
REMARK   10  A    between atoms: C_9  and  C_21
REMARK   11  A    between atoms: C_20  and  C_24
REMARK   12  A    between atoms: C_21  and  C_25
REMARK                            x       y       z     vdW  Elec       q    Type
REMARK                         _______ _______ _______ _____ _____    ______ ____
ROOT
ATOM      1  C   UNL     1       4.481  -8.680  -4.250  0.00  0.00    +0.000 C 
ENDROOT
BRANCH   1   3
ATOM      2  O   UNL     1       4.271 -11.072  -4.446  0.00  0.00    +0.000 OA
ATOM      3  C   UNL     1       4.706 -10.114  -3.813  0.00  0.00    +0.000 C 
BRANCH   3   5
ATOM      4  C   UNL     1       5.774  -9.258  -1.770  0.00  0.00    +0.000 C 
ATOM      5  C   UNL     1       5.534 -10.295  -2.584  0.00  0.00    +0.000 C 
BRANCH   4   6
ATOM      6  C   UNL     1       6.586  -9.328  -0.542  0.00  0.00    +0.000 A 
ATOM      7  C   UNL     1       7.479 -10.376  -0.378  0.00  0.00    +0.000 A 
ATOM      8  C   UNL     1       8.246 -10.442   0.785  0.00  0.00    +0.000 A 
ATOM      9  C   UNL     1       6.439  -8.347   0.425  0.00  0.00    +0.000 A 
ATOM     10  C   UNL     1       8.109  -9.462   1.767  0.00  0.00    +0.000 A 
ATOM     11  C   UNL     1       7.207  -8.414   1.588  0.00  0.00    +0.000 A 
BRANCH   8  12
ATOM     12  O   UNL     1       9.125 -11.470   0.949  0.00  0.00    +0.000 OA
ATOM     13  C   UNL     1       9.598 -12.115  -0.232  0.00  0.00    +0.000 C 
ENDBRANCH   8  12
BRANCH  10  14
ATOM     14  O   UNL     1       8.855  -9.516   2.907  0.00  0.00    +0.000 OA
ATOM     15  H   UNL     1       8.318  -9.169   3.640  0.00  0.00    +0.000 HD
ENDBRANCH  10  14
ENDBRANCH   4   6
ENDBRANCH   3   5
ENDBRANCH   1   3
BRANCH   1  17
ATOM     16  O   UNL     1       2.159  -8.396  -4.832  0.00  0.00    +0.000 OA
ATOM     17  C   UNL     1       3.326  -8.466  -5.209  0.00  0.00    +0.000 C 
BRANCH  17  19
ATOM     18  C   UNL     1       3.823  -7.074  -7.175  0.00  0.00    +0.000 C 
ATOM     19  C   UNL     1       3.698  -8.298  -6.645  0.00  0.00    +0.000 C 
BRANCH  18  20
ATOM     20  C   UNL     1       4.174  -6.801  -8.579  0.00  0.00    +0.000 A 
ATOM     21  C   UNL     1       4.718  -5.573  -8.917  0.00  0.00    +0.000 A 
ATOM     22  C   UNL     1       5.050  -5.315 -10.247  0.00  0.00    +0.000 A 
ATOM     23  C   UNL     1       3.953  -7.780  -9.536  0.00  0.00    +0.000 A 
ATOM     24  C   UNL     1       4.834  -6.290 -11.221  0.00  0.00    +0.000 A 
ATOM     25  C   UNL     1       4.285  -7.522 -10.866  0.00  0.00    +0.000 A 
BRANCH  22  26
ATOM     26  O   UNL     1       5.587  -4.109 -10.582  0.00  0.00    +0.000 OA
ATOM     27  C   UNL     1       4.720  -2.977 -10.532  0.00  0.00    +0.000 C 
ENDBRANCH  22  26
BRANCH  24  28
ATOM     28  O   UNL     1       5.156  -6.051 -12.523  0.00  0.00    +0.000 OA
ATOM     29  H   UNL     1       4.377  -6.226 -13.079  0.00  0.00    +0.000 HD
ENDBRANCH  24  28
ENDBRANCH  18  20
ENDBRANCH  17  19
ENDBRANCH   1  17
TORSDOF 10
ENDMDL
MODEL 4
REMARK VINA RESULT:    -5.449      2.956      9.918
REMARK INTER + INTRA:          -9.288
REMARK INTER:                  -8.601
REMARK INTRA:                  -0.687
REMARK UNBOUND:                -0.972
REMARK  Name = 969516
REMARK  12 active torsions:
REMARK  status: ('A' for Active; 'I' for Inactive)
REMARK    1  A    between atoms: O_1  and  C_12
REMARK    2  A    between atoms: O_1  and  C_26
REMARK    3  A    between atoms: O_2  and  C_13
REMARK    4  A    between atoms: O_2  and  C_27
REMARK    5  A    between atoms: O_3  and  C_18
REMARK    6  A    between atoms: O_4  and  C_19
REMARK    7  A    between atoms: C_7  and  C_16
REMARK    8  A    between atoms: C_8  and  C_17
REMARK    9  A    between atoms: C_9  and  C_20
REMARK   10  A    between atoms: C_9  and  C_21
REMARK   11  A    between atoms: C_20  and  C_24
REMARK   12  A    between atoms: C_21  and  C_25
REMARK                            x       y       z     vdW  Elec       q    Type
REMARK                         _______ _______ _______ _____ _____    ______ ____
ROOT
ATOM      1  C   UNL     1       4.407  -9.180  -3.820  0.00  0.00    +0.000 C 
ENDROOT
BRANCH   1   3
ATOM      2  O   UNL     1       2.625  -7.563  -3.951  0.00  0.00    +0.000 OA
ATOM      3  C   UNL     1       3.450  -8.253  -4.543  0.00  0.00    +0.000 C 
BRANCH   3   5
ATOM      4  C   UNL     1       3.991  -7.056  -6.623  0.00  0.00    +0.000 C 
ATOM      5  C   UNL     1       3.605  -8.192  -6.028  0.00  0.00    +0.000 C 
BRANCH   4   6
ATOM      6  C   UNL     1       4.162  -6.889  -8.077  0.00  0.00    +0.000 A 
ATOM      7  C   UNL     1       3.815  -7.929  -8.925  0.00  0.00    +0.000 A 
ATOM      8  C   UNL     1       3.978  -7.771 -10.301  0.00  0.00    +0.000 A 
ATOM      9  C   UNL     1       4.668  -5.697  -8.568  0.00  0.00    +0.000 A 
ATOM     10  C   UNL     1       4.486  -6.576 -10.810  0.00  0.00    +0.000 A 
ATOM     11  C   UNL     1       4.830  -5.539  -9.945  0.00  0.00    +0.000 A 
BRANCH   8  12
ATOM     12  O   UNL     1       3.638  -8.791 -11.137  0.00  0.00    +0.000 OA
ATOM     13  C   UNL     1       2.251  -8.959 -11.425  0.00  0.00    +0.000 C 
ENDBRANCH   8  12
BRANCH  10  14
ATOM     14  O   UNL     1       4.648  -6.410 -12.153  0.00  0.00    +0.000 OA
ATOM     15  H   UNL     1       4.412  -7.243 -12.595  0.00  0.00    +0.000 HD
ENDBRANCH  10  14
ENDBRANCH   4   6
ENDBRANCH   3   5
ENDBRANCH   1   3
BRANCH   1  17
ATOM     16  O   UNL     1       2.775 -10.628  -2.793  0.00  0.00    +0.000 OA
ATOM     17  C   UNL     1       3.805  -9.968  -2.673  0.00  0.00    +0.000 C 
BRANCH  17  19
ATOM     18  C   UNL     1       5.899  -9.771  -1.396  0.00  0.00    +0.000 C 
ATOM     19  C   UNL     1       4.568  -9.931  -1.390  0.00  0.00    +0.000 C 
BRANCH  18  20
ATOM     20  C   UNL     1       6.743  -9.732  -0.190  0.00  0.00    +0.000 A 
ATOM     21  C   UNL     1       7.646 -10.756   0.040  0.00  0.00    +0.000 A 
ATOM     22  C   UNL     1       8.445 -10.720   1.183  0.00  0.00    +0.000 A 
ATOM     23  C   UNL     1       6.616  -8.670   0.692  0.00  0.00    +0.000 A 
ATOM     24  C   UNL     1       8.329  -9.658   2.080  0.00  0.00    +0.000 A 
ATOM     25  C   UNL     1       7.415  -8.633   1.835  0.00  0.00    +0.000 A 
BRANCH  22  26
ATOM     26  O   UNL     1       9.335 -11.725   1.411  0.00  0.00    +0.000 OA
ATOM     27  C   UNL     1      10.556 -11.691   0.674  0.00  0.00    +0.000 C 
ENDBRANCH  22  26
BRANCH  24  28
ATOM     28  O   UNL     1       9.105  -9.609   3.199  0.00  0.00    +0.000 OA
ATOM     29  H   UNL     1      10.004  -9.336   2.950  0.00  0.00    +0.000 HD
ENDBRANCH  24  28
ENDBRANCH  18  20
ENDBRANCH  17  19
ENDBRANCH   1  17
TORSDOF 10
ENDMDL
MODEL 5
REMARK VINA RESULT:    -5.199      1.400      2.421
REMARK INTER + INTRA:          -8.907
REMARK INTER:                  -7.996
REMARK INTRA:                  -0.910
REMARK UNBOUND:                -0.972
REMARK  Name = 969516
REMARK  12 active torsions:
REMARK  status: ('A' for Active; 'I' for Inactive)
REMARK    1  A    between atoms: O_1  and  C_12
REMARK    2  A    between atoms: O_1  and  C_26
REMARK    3  A    between atoms: O_2  and  C_13
REMARK    4  A    between atoms: O_2  and  C_27
REMARK    5  A    between atoms: O_3  and  C_18
REMARK    6  A    between atoms: O_4  and  C_19
REMARK    7  A    between atoms: C_7  and  C_16
REMARK    8  A    between atoms: C_8  and  C_17
REMARK    9  A    between atoms: C_9  and  C_20
REMARK   10  A    between atoms: C_9  and  C_21
REMARK   11  A    between atoms: C_20  and  C_24
REMARK   12  A    between atoms: C_21  and  C_25
REMARK                            x       y       z     vdW  Elec       q    Type
REMARK                         _______ _______ _______ _____ _____    ______ ____
ROOT
ATOM      1  C   UNL     1       2.584  -9.374  -6.152  0.00  0.00    +0.000 C 
ENDROOT
BRANCH   1   3
ATOM      2  O   UNL     1       4.245 -10.573  -4.883  0.00  0.00    +0.000 OA
ATOM      3  C   UNL     1       3.636  -9.523  -5.072  0.00  0.00    +0.000 C 
BRANCH   3   5
ATOM      4  C   UNL     1       2.942  -7.674  -3.606  0.00  0.00    +0.000 C 
ATOM      5  C   UNL     1       3.924  -8.294  -4.274  0.00  0.00    +0.000 C 
BRANCH   4   6
ATOM      6  C   UNL     1       3.119  -6.452  -2.801  0.00  0.00    +0.000 A 
ATOM      7  C   UNL     1       2.128  -5.483  -2.811  0.00  0.00    +0.000 A 
ATOM      8  C   UNL     1       2.297  -4.327  -2.050  0.00  0.00    +0.000 A 
ATOM      9  C   UNL     1       4.274  -6.295  -2.052  0.00  0.00    +0.000 A 
ATOM     10  C   UNL     1       3.453  -4.154  -1.291  0.00  0.00    +0.000 A 
ATOM     11  C   UNL     1       4.442  -5.138  -1.291  0.00  0.00    +0.000 A 
BRANCH   8  12
ATOM     12  O   UNL     1       1.324  -3.373  -2.057  0.00  0.00    +0.000 OA
ATOM     13  C   UNL     1       1.329  -2.449  -3.144  0.00  0.00    +0.000 C 
ENDBRANCH   8  12
BRANCH  10  14
ATOM     14  O   UNL     1       3.628  -3.029  -0.543  0.00  0.00    +0.000 OA
ATOM     15  H   UNL     1       4.527  -3.045  -0.171  0.00  0.00    +0.000 HD
ENDBRANCH  10  14
ENDBRANCH   4   6
ENDBRANCH   3   5
ENDBRANCH   1   3
BRANCH   1  17
ATOM     16  O   UNL     1       3.040 -10.071  -8.415  0.00  0.00    +0.000 OA
ATOM     17  C   UNL     1       3.119  -9.193  -7.560  0.00  0.00    +0.000 C 
BRANCH  17  19
ATOM     18  C   UNL     1       4.017  -7.516  -9.121  0.00  0.00    +0.000 C 
ATOM     19  C   UNL     1       3.712  -7.856  -7.860  0.00  0.00    +0.000 C 
BRANCH  18  20
ATOM     20  C   UNL     1       4.613  -6.230  -9.520  0.00  0.00    +0.000 A 
ATOM     21  C   UNL     1       4.855  -5.981 -10.861  0.00  0.00    +0.000 A 
ATOM     22  C   UNL     1       5.421  -4.763 -11.239  0.00  0.00    +0.000 A 
ATOM     23  C   UNL     1       4.921  -5.294  -8.546  0.00  0.00    +0.000 A 
ATOM     24  C   UNL     1       5.736  -3.811 -10.270  0.00  0.00    +0.000 A 
ATOM     25  C   UNL     1       5.487  -4.076  -8.923  0.00  0.00    +0.000 A 
BRANCH  22  26
ATOM     26  O   UNL     1       5.659  -4.515 -12.557  0.00  0.00    +0.000 OA
ATOM     27  C   UNL     1       4.526  -4.462 -13.422  0.00  0.00    +0.000 C 
ENDBRANCH  22  26
BRANCH  24  28
ATOM     28  O   UNL     1       6.287  -2.617 -10.626  0.00  0.00    +0.000 OA
ATOM     29  H   UNL     1       6.183  -1.989  -9.891  0.00  0.00    +0.000 HD
ENDBRANCH  24  28
ENDBRANCH  18  20
ENDBRANCH  17  19
ENDBRANCH   1  17
TORSDOF 10
ENDMDL
MODEL 6
REMARK VINA RESULT:    -5.160      1.611      8.198
REMARK INTER + INTRA:          -8.847
REMARK INTER:                  -7.846
REMARK INTRA:                  -1.001
REMARK UNBOUND:                -0.972
REMARK  Name = 969516
REMARK  12 active torsions:
REMARK  status: ('A' for Active; 'I' for Inactive)
REMARK    1  A    between atoms: O_1  and  C_12
REMARK    2  A    between atoms: O_1  and  C_26
REMARK    3  A    between atoms: O_2  and  C_13
REMARK    4  A    between atoms: O_2  and  C_27
REMARK    5  A    between atoms: O_3  and  C_18
REMARK    6  A    between atoms: O_4  and  C_19
REMARK    7  A    between atoms: C_7  and  C_16
REMARK    8  A    between atoms: C_8  and  C_17
REMARK    9  A    between atoms: C_9  and  C_20
REMARK   10  A    between atoms: C_9  and  C_21
REMARK   11  A    between atoms: C_20  and  C_24
REMARK   12  A    between atoms: C_21  and  C_25
REMARK                            x       y       z     vdW  Elec       q    Type
REMARK                         _______ _______ _______ _____ _____    ______ ____
ROOT
ATOM      1  C   UNL     1       1.519  -9.618  -6.986  0.00  0.00    +0.000 C 
ENDROOT
BRANCH   1   3
ATOM      2  O   UNL     1       3.550 -10.745  -7.627  0.00  0.00    +0.000 OA
ATOM      3  C   UNL     1       2.834  -9.753  -7.728  0.00  0.00    +0.000 C 
BRANCH   3   5
ATOM      4  C   UNL     1       4.055  -7.679  -8.235  0.00  0.00    +0.000 C 
ATOM      5  C   UNL     1       3.186  -8.618  -8.633  0.00  0.00    +0.000 C 
BRANCH   4   6
ATOM      6  C   UNL     1       4.460  -6.517  -9.046  0.00  0.00    +0.000 A 
ATOM      7  C   UNL     1       4.430  -6.610 -10.428  0.00  0.00    +0.000 A 
ATOM      8  C   UNL     1       4.814  -5.510 -11.195  0.00  0.00    +0.000 A 
ATOM      9  C   UNL     1       4.865  -5.355  -8.410  0.00  0.00    +0.000 A 
ATOM     10  C   UNL     1       5.224  -4.333 -10.569  0.00  0.00    +0.000 A 
ATOM     11  C   UNL     1       5.250  -4.255  -9.177  0.00  0.00    +0.000 A 
BRANCH   8  12
ATOM     12  O   UNL     1       4.784  -5.598 -12.554  0.00  0.00    +0.000 OA
ATOM     13  C   UNL     1       3.541  -5.323 -13.196  0.00  0.00    +0.000 C 
ENDBRANCH   8  12
BRANCH  10  14
ATOM     14  O   UNL     1       5.600  -3.252 -11.308  0.00  0.00    +0.000 OA
ATOM     15  H   UNL     1       6.330  -2.805 -10.846  0.00  0.00    +0.000 HD
ENDBRANCH  10  14
ENDBRANCH   4   6
ENDBRANCH   3   5
ENDBRANCH   1   3
BRANCH   1  17
ATOM     16  O   UNL     1       0.577  -7.659  -5.942  0.00  0.00    +0.000 OA
ATOM     17  C   UNL     1       1.466  -8.507  -5.955  0.00  0.00    +0.000 C 
BRANCH  17  19
ATOM     18  C   UNL     1       2.595  -7.584  -3.973  0.00  0.00    +0.000 C 
ATOM     19  C   UNL     1       2.541  -8.533  -4.919  0.00  0.00    +0.000 C 
BRANCH  18  20
ATOM     20  C   UNL     1       3.618  -7.514  -2.916  0.00  0.00    +0.000 A 
ATOM     21  C   UNL     1       4.460  -8.594  -2.713  0.00  0.00    +0.000 A 
ATOM     22  C   UNL     1       5.428  -8.527  -1.711  0.00  0.00    +0.000 A 
ATOM     23  C   UNL     1       3.717  -6.366  -2.144  0.00  0.00    +0.000 A 
ATOM     24  C   UNL     1       5.541  -7.380  -0.926  0.00  0.00    +0.000 A 
ATOM     25  C   UNL     1       4.685  -6.299  -1.142  0.00  0.00    +0.000 A 
BRANCH  22  26
ATOM     26  O   UNL     1       6.259  -9.588  -1.509  0.00  0.00    +0.000 OA
ATOM     27  C   UNL     1       6.242 -10.621  -2.493  0.00  0.00    +0.000 C 
ENDBRANCH  22  26
BRANCH  24  28
ATOM     28  O   UNL     1       6.484  -7.301   0.054  0.00  0.00    +0.000 OA
ATOM     29  H   UNL     1       7.355  -7.501  -0.327  0.00  0.00    +0.000 HD
ENDBRANCH  24  28
ENDBRANCH  18  20
ENDBRANCH  17  19
ENDBRANCH   1  17
TORSDOF 10
ENDMDL
MODEL 7
REMARK VINA RESULT:    -5.131      2.667      9.826
REMARK INTER + INTRA:          -8.803
REMARK INTER:                  -8.238
REMARK INTRA:                  -0.565
REMARK UNBOUND:                -0.972
REMARK  Name = 969516
REMARK  12 active torsions:
REMARK  status: ('A' for Active; 'I' for Inactive)
REMARK    1  A    between atoms: O_1  and  C_12
REMARK    2  A    between atoms: O_1  and  C_26
REMARK    3  A    between atoms: O_2  and  C_13
REMARK    4  A    between atoms: O_2  and  C_27
REMARK    5  A    between atoms: O_3  and  C_18
REMARK    6  A    between atoms: O_4  and  C_19
REMARK    7  A    between atoms: C_7  and  C_16
REMARK    8  A    between atoms: C_8  and  C_17
REMARK    9  A    between atoms: C_9  and  C_20
REMARK   10  A    between atoms: C_9  and  C_21
REMARK   11  A    between atoms: C_20  and  C_24
REMARK   12  A    between atoms: C_21  and  C_25
REMARK                            x       y       z     vdW  Elec       q    Type
REMARK                         _______ _______ _______ _____ _____    ______ ____
ROOT
ATOM      1  C   UNL     1       4.321  -9.304  -4.346  0.00  0.00    +0.000 C 
ENDROOT
BRANCH   1   3
ATOM      2  O   UNL     1       2.099  -8.916  -5.193  0.00  0.00    +0.000 OA
ATOM      3  C   UNL     1       3.302  -8.690  -5.285  0.00  0.00    +0.000 C 
BRANCH   3   5
ATOM      4  C   UNL     1       3.638  -7.969  -7.612  0.00  0.00    +0.000 C 
ATOM      5  C   UNL     1       3.849  -7.749  -6.308  0.00  0.00    +0.000 C 
BRANCH   4   6
ATOM      6  C   UNL     1       4.142  -7.109  -8.699  0.00  0.00    +0.000 A 
ATOM      7  C   UNL     1       4.577  -5.827  -8.402  0.00  0.00    +0.000 A 
ATOM      8  C   UNL     1       5.054  -5.014  -9.431  0.00  0.00    +0.000 A 
ATOM      9  C   UNL     1       4.169  -7.599  -9.994  0.00  0.00    +0.000 A 
ATOM     10  C   UNL     1       5.087  -5.493 -10.740  0.00  0.00    +0.000 A 
ATOM     11  C   UNL     1       4.645  -6.785 -11.022  0.00  0.00    +0.000 A 
BRANCH   8  12
ATOM     12  O   UNL     1       5.483  -3.753  -9.143  0.00  0.00    +0.000 OA
ATOM     13  C   UNL     1       4.491  -2.799  -8.769  0.00  0.00    +0.000 C 
ENDBRANCH   8  12
BRANCH  10  14
ATOM     14  O   UNL     1       5.552  -4.708 -11.752  0.00  0.00    +0.000 OA
ATOM     15  H   UNL     1       4.816  -4.161 -12.077  0.00  0.00    +0.000 HD
ENDBRANCH  10  14
ENDBRANCH   4   6
ENDBRANCH   3   5
ENDBRANCH   1   3
BRANCH   1  17
ATOM     16  O   UNL     1       3.627  -7.797  -2.597  0.00  0.00    +0.000 OA
ATOM     17  C   UNL     1       4.421  -8.652  -2.980  0.00  0.00    +0.000 C 
BRANCH  17  19
ATOM     18  C   UNL     1       5.627  -8.723  -0.837  0.00  0.00    +0.000 C 
ATOM     19  C   UNL     1       5.523  -9.149  -2.104  0.00  0.00    +0.000 C 
BRANCH  18  20
ATOM     20  C   UNL     1       6.681  -9.142   0.103  0.00  0.00    +0.000 A 
ATOM     21  C   UNL     1       7.170 -10.437   0.042  0.00  0.00    +0.000 A 
ATOM     22  C   UNL     1       8.167 -10.834   0.933  0.00  0.00    +0.000 A 
ATOM     23  C   UNL     1       7.162  -8.233   1.032  0.00  0.00    +0.000 A 
ATOM     24  C   UNL     1       8.661  -9.930   1.873  0.00  0.00    +0.000 A 
ATOM     25  C   UNL     1       8.159  -8.630   1.923  0.00  0.00    +0.000 A 
BRANCH  22  26
ATOM     26  O   UNL     1       8.650 -12.106   0.874  0.00  0.00    +0.000 OA
ATOM     27  C   UNL     1       8.008 -13.083   1.692  0.00  0.00    +0.000 C 
ENDBRANCH  22  26
BRANCH  24  28
ATOM     28  O   UNL     1       9.636 -10.305   2.748  0.00  0.00    +0.000 OA
ATOM     29  H   UNL     1      10.502 -10.205   2.318  0.00  0.00    +0.000 HD
ENDBRANCH  24  28
ENDBRANCH  18  20
ENDBRANCH  17  19
ENDBRANCH   1  17
TORSDOF 10
ENDMDL
MODEL 8
REMARK VINA RESULT:    -4.901      1.358      2.557
REMARK INTER + INTRA:          -8.453
REMARK INTER:                  -7.486
REMARK INTRA:                  -0.967
REMARK UNBOUND:                -0.972
REMARK  Name = 969516
REMARK  12 active torsions:
REMARK  status: ('A' for Active; 'I' for Inactive)
REMARK    1  A    between atoms: O_1  and  C_12
REMARK    2  A    between atoms: O_1  and  C_26
REMARK    3  A    between atoms: O_2  and  C_13
REMARK    4  A    between atoms: O_2  and  C_27
REMARK    5  A    between atoms: O_3  and  C_18
REMARK    6  A    between atoms: O_4  and  C_19
REMARK    7  A    between atoms: C_7  and  C_16
REMARK    8  A    between atoms: C_8  and  C_17
REMARK    9  A    between atoms: C_9  and  C_20
REMARK   10  A    between atoms: C_9  and  C_21
REMARK   11  A    between atoms: C_20  and  C_24
REMARK   12  A    between atoms: C_21  and  C_25
REMARK                            x       y       z     vdW  Elec       q    Type
REMARK                         _______ _______ _______ _____ _____    ______ ____
ROOT
ATOM      1  C   UNL     1       3.190  -9.438  -7.399  0.00  0.00    +0.000 C 
ENDROOT
BRANCH   1   3
ATOM      2  O   UNL     1       0.939  -9.066  -6.623  0.00  0.00    +0.000 OA
ATOM      3  C   UNL     1       2.140  -9.081  -6.366  0.00  0.00    +0.000 C 
BRANCH   3   5
ATOM      4  C   UNL     1       3.962  -8.597  -4.786  0.00  0.00    +0.000 C 
ATOM      5  C   UNL     1       2.653  -8.793  -4.993  0.00  0.00    +0.000 C 
BRANCH   4   6
ATOM      6  C   UNL     1       4.569  -8.319  -3.472  0.00  0.00    +0.000 A 
ATOM      7  C   UNL     1       4.383  -7.075  -2.889  0.00  0.00    +0.000 A 
ATOM      8  C   UNL     1       4.958  -6.812  -1.646  0.00  0.00    +0.000 A 
ATOM      9  C   UNL     1       5.315  -9.304  -2.848  0.00  0.00    +0.000 A 
ATOM     10  C   UNL     1       5.712  -7.794  -1.004  0.00  0.00    +0.000 A 
ATOM     11  C   UNL     1       5.890  -9.040  -1.604  0.00  0.00    +0.000 A 
BRANCH   8  12
ATOM     12  O   UNL     1       4.777  -5.591  -1.070  0.00  0.00    +0.000 OA
ATOM     13  C   UNL     1       3.497  -5.326  -0.499  0.00  0.00    +0.000 C 
ENDBRANCH   8  12
BRANCH  10  14
ATOM     14  O   UNL     1       6.278  -7.549   0.210  0.00  0.00    +0.000 OA
ATOM     15  H   UNL     1       6.296  -6.586   0.351  0.00  0.00    +0.000 HD
ENDBRANCH  10  14
ENDBRANCH   4   6
ENDBRANCH   3   5
ENDBRANCH   1   3
BRANCH   1  17
ATOM     16  O   UNL     1       2.165 -10.116  -9.473  0.00  0.00    +0.000 OA
ATOM     17  C   UNL     1       2.770  -9.251  -8.844  0.00  0.00    +0.000 C 
BRANCH  17  19
ATOM     18  C   UNL     1       4.296  -7.364  -9.245  0.00  0.00    +0.000 C 
ATOM     19  C   UNL     1       3.096  -7.926  -9.448  0.00  0.00    +0.000 C 
BRANCH  18  20
ATOM     20  C   UNL     1       4.712  -6.059  -9.786  0.00  0.00    +0.000 A 
ATOM     21  C   UNL     1       4.722  -4.951  -8.955  0.00  0.00    +0.000 A 
ATOM     22  C   UNL     1       5.115  -3.714  -9.468  0.00  0.00    +0.000 A 
ATOM     23  C   UNL     1       5.085  -5.965 -11.118  0.00  0.00    +0.000 A 
ATOM     24  C   UNL     1       5.493  -3.604 -10.806  0.00  0.00    +0.000 A 
ATOM     25  C   UNL     1       5.478  -4.728 -11.631  0.00  0.00    +0.000 A 
BRANCH  22  26
ATOM     26  O   UNL     1       5.127  -2.624  -8.653  0.00  0.00    +0.000 OA
ATOM     27  C   UNL     1       3.862  -2.089  -8.266  0.00  0.00    +0.000 C 
ENDBRANCH  22  26
BRANCH  24  28
ATOM     28  O   UNL     1       5.881  -2.403 -11.319  0.00  0.00    +0.000 OA
ATOM     29  H   UNL     1       6.362  -1.907 -10.635  0.00  0.00    +0.000 HD
ENDBRANCH  24  28
ENDBRANCH  18  20
ENDBRANCH  17  19
ENDBRANCH   1  17
TORSDOF 10
ENDMDL
MODEL 9
REMARK VINA RESULT:    -4.887      1.921      3.256
REMARK INTER + INTRA:          -8.431
REMARK INTER:                  -7.598
REMARK INTRA:                  -0.833
REMARK UNBOUND:                -0.972
REMARK  Name = 969516
REMARK  12 active torsions:
REMARK  status: ('A' for Active; 'I' for Inactive)
REMARK    1  A    between atoms: O_1  and  C_12
REMARK    2  A    between atoms: O_1  and  C_26
REMARK    3  A    between atoms: O_2  and  C_13
REMARK    4  A    between atoms: O_2  and  C_27
REMARK    5  A    between atoms: O_3  and  C_18
REMARK    6  A    between atoms: O_4  and  C_19
REMARK    7  A    between atoms: C_7  and  C_16
REMARK    8  A    between atoms: C_8  and  C_17
REMARK    9  A    between atoms: C_9  and  C_20
REMARK   10  A    between atoms: C_9  and  C_21
REMARK   11  A    between atoms: C_20  and  C_24
REMARK   12  A    between atoms: C_21  and  C_25
REMARK                            x       y       z     vdW  Elec       q    Type
REMARK                         _______ _______ _______ _____ _____    ______ ____
ROOT
ATOM      1  C   UNL     1       2.015  -8.441  -5.765  0.00  0.00    +0.000 C 
ENDROOT
BRANCH   1   3
ATOM      2  O   UNL     1       3.530 -10.232  -6.318  0.00  0.00    +0.000 OA
ATOM      3  C   UNL     1       3.050  -9.504  -5.453  0.00  0.00    +0.000 C 
BRANCH   3   5
ATOM      4  C   UNL     1       4.756  -9.311  -3.693  0.00  0.00    +0.000 C 
ATOM      5  C   UNL     1       3.488  -9.583  -4.028  0.00  0.00    +0.000 C 
BRANCH   4   6
ATOM      6  C   UNL     1       5.291  -9.371  -2.320  0.00  0.00    +0.000 A 
ATOM      7  C   UNL     1       4.664  -8.649  -1.317  0.00  0.00    +0.000 A 
ATOM      8  C   UNL     1       5.171  -8.705  -0.018  0.00  0.00    +0.000 A 
ATOM      9  C   UNL     1       6.410 -10.145  -2.062  0.00  0.00    +0.000 A 
ATOM     10  C   UNL     1       6.297  -9.480   0.258  0.00  0.00    +0.000 A 
ATOM     11  C   UNL     1       6.916 -10.200  -0.763  0.00  0.00    +0.000 A 
BRANCH   8  12
ATOM     12  O   UNL     1       4.557  -7.997   0.971  0.00  0.00    +0.000 OA
ATOM     13  C   UNL     1       3.562  -7.056   0.574  0.00  0.00    +0.000 C 
ENDBRANCH   8  12
BRANCH  10  14
ATOM     14  O   UNL     1       6.799  -9.543   1.523  0.00  0.00    +0.000 OA
ATOM     15  H   UNL     1       7.457 -10.259   1.555  0.00  0.00    +0.000 HD
ENDBRANCH  10  14
ENDBRANCH   4   6
ENDBRANCH   3   5
ENDBRANCH   1   3
BRANCH   1  17
ATOM     16  O   UNL     1       2.586  -6.419  -4.584  0.00  0.00    +0.000 OA
ATOM     17  C   UNL     1       2.502  -7.009  -5.658  0.00  0.00    +0.000 C 
BRANCH  17  19
ATOM     18  C   UNL     1       3.912  -6.898  -7.671  0.00  0.00    +0.000 C 
ATOM     19  C   UNL     1       2.920  -6.369  -6.940  0.00  0.00    +0.000 C 
BRANCH  18  20
ATOM     20  C   UNL     1       4.406  -6.338  -8.941  0.00  0.00    +0.000 A 
ATOM     21  C   UNL     1       4.876  -5.036  -8.972  0.00  0.00    +0.000 A 
ATOM     22  C   UNL     1       5.342  -4.506 -10.175  0.00  0.00    +0.000 A 
ATOM     23  C   UNL     1       4.390  -7.127 -10.081  0.00  0.00    +0.000 A 
ATOM     24  C   UNL     1       5.333  -5.287 -11.331  0.00  0.00    +0.000 A 
ATOM     25  C   UNL     1       4.856  -6.597 -11.284  0.00  0.00    +0.000 A 
BRANCH  22  26
ATOM     26  O   UNL     1       5.806  -3.226 -10.209  0.00  0.00    +0.000 OA
ATOM     27  C   UNL     1       4.870  -2.189  -9.922  0.00  0.00    +0.000 C 
ENDBRANCH  22  26
BRANCH  24  28
ATOM     28  O   UNL     1       5.788  -4.782 -12.512  0.00  0.00    +0.000 OA
ATOM     29  H   UNL     1       5.034  -4.651 -13.111  0.00  0.00    +0.000 HD
ENDBRANCH  24  28
ENDBRANCH  18  20
ENDBRANCH  17  19
ENDBRANCH   1  17
TORSDOF 10
ENDMDL
