MODEL 1
REMARK VINA RESULT:    -4.100      0.000      0.000
REMARK INTER + INTRA:          -4.100
REMARK INTER:                  -4.100
REMARK INTRA:                   0.000
REMARK UNBOUND:                 0.000
REMARK  Name = 2519
REMARK  3 active torsions:
REMARK  status: ('A' for Active; 'I' for Inactive)
REMARK    1  A    between atoms: N_3  and  C_12
REMARK    2  A    between atoms: N_4  and  C_13
REMARK    3  A    between atoms: N_5  and  C_14
REMARK                            x       y       z     vdW  Elec       q    Type
REMARK                         _______ _______ _______ _____ _____    ______ ____
ROOT
ATOM      1  O   UNL     1       6.877 -12.275   0.977  0.00  0.00    +0.000 OA
ATOM      2  O   UNL     1       3.802  -9.540  -1.278  0.00  0.00    +0.000 OA
ATOM      3  N   UNL     1       5.565  -8.517  -0.157  0.00  0.00    +0.000 N 
ATOM      4  N   UNL     1       8.251  -9.728   1.735  0.00  0.00    +0.000 N 
ATOM      5  N   UNL     1       5.324 -10.926  -0.160  0.00  0.00    +0.000 N 
ATOM      6  N   UNL     1       7.520  -7.719   1.108  0.00  0.00    +0.000 NA
ATOM      7  C   UNL     1       7.127  -9.946   0.993  0.00  0.00    +0.000 A 
ATOM      8  C   UNL     1       6.700  -8.701   0.621  0.00  0.00    +0.000 A 
ATOM      9  C   UNL     1       6.477 -11.165   0.635  0.00  0.00    +0.000 A 
ATOM     10  C   UNL     1       4.820  -9.644  -0.584  0.00  0.00    +0.000 A 
ATOM     11  C   UNL     1       8.447  -8.372   1.777  0.00  0.00    +0.000 A 
ATOM     12  C   UNL     1       5.143  -7.172  -0.533  0.00  0.00    +0.000 C 
ATOM     13  C   UNL     1       9.092 -10.717   2.368  0.00  0.00    +0.000 C 
ATOM     14  C   UNL     1       4.571 -12.100  -0.590  0.00  0.00    +0.000 C 
ENDROOT
TORSDOF 0
ENDMDL
MODEL 2
REMARK VINA RESULT:    -4.049      1.565      3.055
REMARK INTER + INTRA:          -4.049
REMARK INTER:                  -4.049
REMARK INTRA:                   0.000
REMARK UNBOUND:                 0.000
REMARK  Name = 2519
REMARK  3 active torsions:
REMARK  status: ('A' for Active; 'I' for Inactive)
REMARK    1  A    between atoms: N_3  and  C_12
REMARK    2  A    between atoms: N_4  and  C_13
REMARK    3  A    between atoms: N_5  and  C_14
REMARK                            x       y       z     vdW  Elec       q    Type
REMARK                         _______ _______ _______ _____ _____    ______ ____
ROOT
ATOM      1  O   UNL     1       7.271  -7.555   1.011  0.00  0.00    +0.000 OA
ATOM      2  O   UNL     1       3.695  -9.184  -1.552  0.00  0.00    +0.000 OA
ATOM      3  N   UNL     1       5.079 -10.726  -0.495  0.00  0.00    +0.000 N 
ATOM      4  N   UNL     1       7.902 -10.428   1.556  0.00  0.00    +0.000 N 
ATOM      5  N   UNL     1       5.473  -8.347  -0.278  0.00  0.00    +0.000 N 
ATOM      6  N   UNL     1       6.701 -12.114   0.730  0.00  0.00    +0.000 NA
ATOM      7  C   UNL     1       6.908  -9.861   0.813  0.00  0.00    +0.000 A 
ATOM      8  C   UNL     1       6.188 -10.913   0.320  0.00  0.00    +0.000 A 
ATOM      9  C   UNL     1       6.614  -8.488   0.557  0.00  0.00    +0.000 A 
ATOM     10  C   UNL     1       4.673  -9.411  -0.831  0.00  0.00    +0.000 A 
ATOM     11  C   UNL     1       7.736 -11.787   1.475  0.00  0.00    +0.000 A 
ATOM     12  C   UNL     1       4.337 -11.875  -1.001  0.00  0.00    +0.000 C 
ATOM     13  C   UNL     1       8.943  -9.753   2.295  0.00  0.00    +0.000 C 
ATOM     14  C   UNL     1       5.071  -6.985  -0.612  0.00  0.00    +0.000 C 
ENDROOT
TORSDOF 0
ENDMDL
MODEL 3
REMARK VINA RESULT:    -4.038      1.709      3.634
REMARK INTER + INTRA:          -4.038
REMARK INTER:                  -4.038
REMARK INTRA:                   0.000
REMARK UNBOUND:                 0.000
REMARK  Name = 2519
REMARK  3 active torsions:
REMARK  status: ('A' for Active; 'I' for Inactive)
REMARK    1  A    between atoms: N_3  and  C_12
REMARK    2  A    between atoms: N_4  and  C_13
REMARK    3  A    between atoms: N_5  and  C_14
REMARK                            x       y       z     vdW  Elec       q    Type
REMARK                         _______ _______ _______ _____ _____    ______ ____
ROOT
ATOM      1  O   UNL     1       7.634 -12.223   1.672  0.00  0.00    +0.000 OA
ATOM      2  O   UNL     1       7.804  -7.543   1.374  0.00  0.00    +0.000 OA
ATOM      3  N   UNL     1       6.207  -8.665   0.109  0.00  0.00    +0.000 N 
ATOM      4  N   UNL     1       5.377 -12.045  -0.284  0.00  0.00    +0.000 N 
ATOM      5  N   UNL     1       7.739  -9.879   1.539  0.00  0.00    +0.000 N 
ATOM      6  N   UNL     1       4.631 -10.113  -1.107  0.00  0.00    +0.000 NA
ATOM      7  C   UNL     1       6.145 -11.068   0.281  0.00  0.00    +0.000 A 
ATOM      8  C   UNL     1       5.667  -9.897  -0.239  0.00  0.00    +0.000 A 
ATOM      9  C   UNL     1       7.221 -11.161   1.214  0.00  0.00    +0.000 A 
ATOM     10  C   UNL     1       7.284  -8.610   1.028  0.00  0.00    +0.000 A 
ATOM     11  C   UNL     1       4.481 -11.421  -1.113  0.00  0.00    +0.000 A 
ATOM     12  C   UNL     1       5.670  -7.439  -0.467  0.00  0.00    +0.000 C 
ATOM     13  C   UNL     1       5.470 -13.470  -0.070  0.00  0.00    +0.000 C 
ATOM     14  C   UNL     1       8.847  -9.843   2.488  0.00  0.00    +0.000 C 
ENDROOT
TORSDOF 0
ENDMDL
MODEL 4
REMARK VINA RESULT:    -3.988      1.651      4.392
REMARK INTER + INTRA:          -3.988
REMARK INTER:                  -3.988
REMARK INTRA:                   0.000
REMARK UNBOUND:                 0.000
REMARK  Name = 2519
REMARK  3 active torsions:
REMARK  status: ('A' for Active; 'I' for Inactive)
REMARK    1  A    between atoms: N_3  and  C_12
REMARK    2  A    between atoms: N_4  and  C_13
REMARK    3  A    between atoms: N_5  and  C_14
REMARK                            x       y       z     vdW  Elec       q    Type
REMARK                         _______ _______ _______ _____ _____    ______ ____
ROOT
ATOM      1  O   UNL     1       7.321  -7.528   1.017  0.00  0.00    +0.000 OA
ATOM      2  O   UNL     1       7.654 -12.162   1.671  0.00  0.00    +0.000 OA
ATOM      3  N   UNL     1       6.040 -11.376   0.192  0.00  0.00    +0.000 N 
ATOM      4  N   UNL     1       5.101  -8.176  -0.881  0.00  0.00    +0.000 N 
ATOM      5  N   UNL     1       7.507  -9.845   1.362  0.00  0.00    +0.000 N 
ATOM      6  N   UNL     1       4.435 -10.261  -1.305  0.00  0.00    +0.000 NA
ATOM      7  C   UNL     1       5.891  -8.992  -0.123  0.00  0.00    +0.000 A 
ATOM      8  C   UNL     1       5.463 -10.260  -0.401  0.00  0.00    +0.000 A 
ATOM      9  C   UNL     1       6.949  -8.674   0.782  0.00  0.00    +0.000 A 
ATOM     10  C   UNL     1       7.103 -11.206   1.113  0.00  0.00    +0.000 A 
ATOM     11  C   UNL     1       4.240  -8.987  -1.575  0.00  0.00    +0.000 A 
ATOM     12  C   UNL     1       5.555 -12.712  -0.132  0.00  0.00    +0.000 C 
ATOM     13  C   UNL     1       5.142  -6.735  -0.957  0.00  0.00    +0.000 C 
ATOM     14  C   UNL     1       8.601  -9.649   2.306  0.00  0.00    +0.000 C 
ENDROOT
TORSDOF 0
ENDMDL
MODEL 5
REMARK VINA RESULT:    -3.906      1.727      4.043
REMARK INTER + INTRA:          -3.906
REMARK INTER:                  -3.906
REMARK INTRA:                   0.000
REMARK UNBOUND:                 0.000
REMARK  Name = 2519
REMARK  3 active torsions:
REMARK  status: ('A' for Active; 'I' for Inactive)
REMARK    1  A    between atoms: N_3  and  C_12
REMARK    2  A    between atoms: N_4  and  C_13
REMARK    3  A    between atoms: N_5  and  C_14
REMARK                            x       y       z     vdW  Elec       q    Type
REMARK                         _______ _______ _______ _____ _____    ______ ____
ROOT
ATOM      1  O   UNL     1       4.421  -9.913  -0.969  0.00  0.00    +0.000 OA
ATOM      2  O   UNL     1       7.710  -7.543   1.393  0.00  0.00    +0.000 OA
ATOM      3  N   UNL     1       7.765  -9.867   1.469  0.00  0.00    +0.000 N 
ATOM      4  N   UNL     1       5.774 -12.377   0.054  0.00  0.00    +0.000 N 
ATOM      5  N   UNL     1       6.057  -8.703   0.206  0.00  0.00    +0.000 N 
ATOM      6  N   UNL     1       7.575 -12.319   1.366  0.00  0.00    +0.000 NA
ATOM      7  C   UNL     1       6.063 -11.057   0.247  0.00  0.00    +0.000 A 
ATOM      8  C   UNL     1       7.169 -11.050   1.052  0.00  0.00    +0.000 A 
ATOM      9  C   UNL     1       5.412  -9.886  -0.245  0.00  0.00    +0.000 A 
ATOM     10  C   UNL     1       7.221  -8.626   1.053  0.00  0.00    +0.000 A 
ATOM     11  C   UNL     1       6.711 -13.097   0.748  0.00  0.00    +0.000 A 
ATOM     12  C   UNL     1       8.944  -9.901   2.327  0.00  0.00    +0.000 C 
ATOM     13  C   UNL     1       4.694 -12.935  -0.724  0.00  0.00    +0.000 C 
ATOM     14  C   UNL     1       5.482  -7.436  -0.232  0.00  0.00    +0.000 C 
ENDROOT
TORSDOF 0
ENDMDL
MODEL 6
REMARK VINA RESULT:    -3.703     13.096     13.922
REMARK INTER + INTRA:          -3.703
REMARK INTER:                  -3.703
REMARK INTRA:                   0.000
REMARK UNBOUND:                 0.000
REMARK  Name = 2519
REMARK  3 active torsions:
REMARK  status: ('A' for Active; 'I' for Inactive)
REMARK    1  A    between atoms: N_3  and  C_12
REMARK    2  A    between atoms: N_4  and  C_13
REMARK    3  A    between atoms: N_5  and  C_14
REMARK                            x       y       z     vdW  Elec       q    Type
REMARK                         _______ _______ _______ _____ _____    ______ ____
ROOT
ATOM      1  O   UNL     1      16.683  -7.647  -5.371  0.00  0.00    +0.000 OA
ATOM      2  O   UNL     1      18.029 -11.429  -7.800  0.00  0.00    +0.000 OA
ATOM      3  N   UNL     1      17.205  -9.602  -8.981  0.00  0.00    +0.000 N 
ATOM      4  N   UNL     1      16.005  -6.453  -8.029  0.00  0.00    +0.000 N 
ATOM      5  N   UNL     1      17.363  -9.553  -6.565  0.00  0.00    +0.000 N 
ATOM      6  N   UNL     1      16.298  -7.532  -9.957  0.00  0.00    +0.000 NA
ATOM      7  C   UNL     1      16.521  -7.675  -7.707  0.00  0.00    +0.000 A 
ATOM      8  C   UNL     1      16.691  -8.314  -8.904  0.00  0.00    +0.000 A 
ATOM      9  C   UNL     1      16.841  -8.238  -6.436  0.00  0.00    +0.000 A 
ATOM     10  C   UNL     1      17.567 -10.282  -7.792  0.00  0.00    +0.000 A 
ATOM     11  C   UNL     1      15.889  -6.414  -9.394  0.00  0.00    +0.000 A 
ATOM     12  C   UNL     1      17.372 -10.250 -10.277  0.00  0.00    +0.000 C 
ATOM     13  C   UNL     1      15.641  -5.387  -7.125  0.00  0.00    +0.000 C 
ATOM     14  C   UNL     1      17.730 -10.236  -5.329  0.00  0.00    +0.000 C 
ENDROOT
TORSDOF 0
ENDMDL
MODEL 7
REMARK VINA RESULT:    -3.684      2.138      4.227
REMARK INTER + INTRA:          -3.684
REMARK INTER:                  -3.684
REMARK INTRA:                   0.000
REMARK UNBOUND:                 0.000
REMARK  Name = 2519
REMARK  3 active torsions:
REMARK  status: ('A' for Active; 'I' for Inactive)
REMARK    1  A    between atoms: N_3  and  C_12
REMARK    2  A    between atoms: N_4  and  C_13
REMARK    3  A    between atoms: N_5  and  C_14
REMARK                            x       y       z     vdW  Elec       q    Type
REMARK                         _______ _______ _______ _____ _____    ______ ____
ROOT
ATOM      1  O   UNL     1       5.512  -9.724  -3.820  0.00  0.00    +0.000 OA
ATOM      2  O   UNL     1       8.258 -11.469  -0.439  0.00  0.00    +0.000 OA
ATOM      3  N   UNL     1       6.972  -9.593   0.051  0.00  0.00    +0.000 N 
ATOM      4  N   UNL     1       4.704  -7.671  -1.800  0.00  0.00    +0.000 N 
ATOM      5  N   UNL     1       6.896 -10.616  -2.143  0.00  0.00    +0.000 N 
ATOM      6  N   UNL     1       5.508  -7.628   0.279  0.00  0.00    +0.000 NA
ATOM      7  C   UNL     1       5.573  -8.719  -1.705  0.00  0.00    +0.000 A 
ATOM      8  C   UNL     1       6.050  -8.670  -0.424  0.00  0.00    +0.000 A 
ATOM      9  C   UNL     1       5.954  -9.694  -2.674  0.00  0.00    +0.000 A 
ATOM     10  C   UNL     1       7.438 -10.620  -0.808  0.00  0.00    +0.000 A 
ATOM     11  C   UNL     1       4.699  -7.043  -0.580  0.00  0.00    +0.000 A 
ATOM     12  C   UNL     1       7.457  -9.507   1.423  0.00  0.00    +0.000 C 
ATOM     13  C   UNL     1       3.926  -7.274  -2.950  0.00  0.00    +0.000 C 
ATOM     14  C   UNL     1       7.363 -11.666  -3.042  0.00  0.00    +0.000 C 
ENDROOT
TORSDOF 0
ENDMDL
MODEL 8
REMARK VINA RESULT:    -3.615      2.614      3.274
REMARK INTER + INTRA:          -3.615
REMARK INTER:                  -3.615
REMARK INTRA:                   0.000
REMARK UNBOUND:                 0.000
REMARK  Name = 2519
REMARK  3 active torsions:
REMARK  status: ('A' for Active; 'I' for Inactive)
REMARK    1  A    between atoms: N_3  and  C_12
REMARK    2  A    between atoms: N_4  and  C_13
REMARK    3  A    between atoms: N_5  and  C_14
REMARK                            x       y       z     vdW  Elec       q    Type
REMARK                         _______ _______ _______ _____ _____    ______ ____
ROOT
ATOM      1  O   UNL     1       6.963 -10.770  -3.977  0.00  0.00    +0.000 OA
ATOM      2  O   UNL     1       4.336  -7.691  -1.603  0.00  0.00    +0.000 OA
ATOM      3  N   UNL     1       5.849  -8.993  -0.408  0.00  0.00    +0.000 N 
ATOM      4  N   UNL     1       8.147 -11.473  -1.321  0.00  0.00    +0.000 N 
ATOM      5  N   UNL     1       5.636  -9.221  -2.810  0.00  0.00    +0.000 N 
ATOM      6  N   UNL     1       7.526 -10.497   0.584  0.00  0.00    +0.000 NA
ATOM      7  C   UNL     1       7.183 -10.566  -1.654  0.00  0.00    +0.000 A 
ATOM      8  C   UNL     1       6.822  -9.982  -0.471  0.00  0.00    +0.000 A 
ATOM      9  C   UNL     1       6.623 -10.236  -2.924  0.00  0.00    +0.000 A 
ATOM     10  C   UNL     1       5.208  -8.567  -1.598  0.00  0.00    +0.000 A 
ATOM     11  C   UNL     1       8.319 -11.395   0.037  0.00  0.00    +0.000 A 
ATOM     12  C   UNL     1       5.492  -8.395   0.873  0.00  0.00    +0.000 C 
ATOM     13  C   UNL     1       8.865 -12.359  -2.208  0.00  0.00    +0.000 C 
ATOM     14  C   UNL     1       4.988  -8.796  -4.046  0.00  0.00    +0.000 C 
ENDROOT
TORSDOF 0
ENDMDL
MODEL 9
REMARK VINA RESULT:    -3.586      2.567      3.671
REMARK INTER + INTRA:          -3.586
REMARK INTER:                  -3.586
REMARK INTRA:                   0.000
REMARK UNBOUND:                 0.000
REMARK  Name = 2519
REMARK  3 active torsions:
REMARK  status: ('A' for Active; 'I' for Inactive)
REMARK    1  A    between atoms: N_3  and  C_12
REMARK    2  A    between atoms: N_4  and  C_13
REMARK    3  A    between atoms: N_5  and  C_14
REMARK                            x       y       z     vdW  Elec       q    Type
REMARK                         _______ _______ _______ _____ _____    ______ ____
ROOT
ATOM      1  O   UNL     1       8.527 -11.264   0.477  0.00  0.00    +0.000 OA
ATOM      2  O   UNL     1       5.668  -7.550   0.241  0.00  0.00    +0.000 OA
ATOM      3  N   UNL     1       5.857  -8.910  -1.636  0.00  0.00    +0.000 N 
ATOM      4  N   UNL     1       7.697 -11.805  -2.345  0.00  0.00    +0.000 N 
ATOM      5  N   UNL     1       7.102  -9.398   0.383  0.00  0.00    +0.000 N 
ATOM      6  N   UNL     1       6.256 -10.519  -3.457  0.00  0.00    +0.000 NA
ATOM      7  C   UNL     1       7.334 -10.809  -1.486  0.00  0.00    +0.000 A 
ATOM      8  C   UNL     1       6.451 -10.037  -2.190  0.00  0.00    +0.000 A 
ATOM      9  C   UNL     1       7.735 -10.557  -0.140  0.00  0.00    +0.000 A 
ATOM     10  C   UNL     1       6.167  -8.542  -0.303  0.00  0.00    +0.000 A 
ATOM     11  C   UNL     1       7.022 -11.587  -3.519  0.00  0.00    +0.000 A 
ATOM     12  C   UNL     1       4.921  -8.113  -2.420  0.00  0.00    +0.000 C 
ATOM     13  C   UNL     1       8.614 -12.892  -2.094  0.00  0.00    +0.000 C 
ATOM     14  C   UNL     1       7.432  -9.036   1.758  0.00  0.00    +0.000 C 
ENDROOT
TORSDOF 0
ENDMDL
