MODEL 1
REMARK VINA RESULT:    -4.245      0.000      0.000
REMARK INTER + INTRA:          -5.807
REMARK INTER:                  -5.113
REMARK INTRA:                  -0.693
REMARK UNBOUND:                -0.693
REMARK  Name = 2244
REMARK  5 active torsions:
REMARK  status: ('A' for Active; 'I' for Inactive)
REMARK    1  A    between atoms: O_1  and  C_5
REMARK    2  A    between atoms: O_1  and  C_12
REMARK    3  A    between atoms: O_2  and  C_11
REMARK    4  A    between atoms: C_6  and  C_11
REMARK    5  A    between atoms: C_12  and  C_13
REMARK                            x       y       z     vdW  Elec       q    Type
REMARK                         _______ _______ _______ _____ _____    ______ ____
ROOT
ATOM      1  C   UNL     1       6.218  -9.562   0.535  0.00  0.00    +0.000 A 
ATOM      2  C   UNL     1       7.577  -9.683   0.825  0.00  0.00    +0.000 A 
ATOM      3  C   UNL     1       5.623 -10.420  -0.390  0.00  0.00    +0.000 A 
ATOM      4  C   UNL     1       8.341 -10.662   0.190  0.00  0.00    +0.000 A 
ATOM      5  C   UNL     1       6.387 -11.399  -1.025  0.00  0.00    +0.000 A 
ATOM      6  C   UNL     1       7.745 -11.519  -0.736  0.00  0.00    +0.000 A 
ENDROOT
BRANCH   2   8
ATOM      7  O   UNL     1       8.805  -9.142   2.811  0.00  0.00    +0.000 OA
ATOM      8  C   UNL     1       8.217  -8.799   1.789  0.00  0.00    +0.000 C 
BRANCH   8   9
ATOM      9  O   UNL     1       8.096  -7.489   1.435  0.00  0.00    +0.000 OA
ATOM     10  H   UNL     1       7.275  -7.323   0.925  0.00  0.00    +0.000 HD
ENDBRANCH   8   9
ENDBRANCH   2   8
BRANCH   1  11
ATOM     11  O   UNL     1       5.454  -8.614   1.147  0.00  0.00    +0.000 OA
BRANCH  11  13
ATOM     12  O   UNL     1       5.677  -6.948  -0.483  0.00  0.00    +0.000 OA
ATOM     13  C   UNL     1       4.989  -7.610   0.284  0.00  0.00    +0.000 C 
ATOM     14  C   UNL     1       3.504  -7.455   0.432  0.00  0.00    +0.000 C 
ENDBRANCH  11  13
ENDBRANCH   1  11
TORSDOF 4
ENDMDL
MODEL 2
REMARK VINA RESULT:    -4.041      1.479      3.517
REMARK INTER + INTRA:          -5.561
REMARK INTER:                  -4.943
REMARK INTRA:                  -0.618
REMARK UNBOUND:                -0.693
REMARK  Name = 2244
REMARK  5 active torsions:
REMARK  status: ('A' for Active; 'I' for Inactive)
REMARK    1  A    between atoms: O_1  and  C_5
REMARK    2  A    between atoms: O_1  and  C_12
REMARK    3  A    between atoms: O_2  and  C_11
REMARK    4  A    between atoms: C_6  and  C_11
REMARK    5  A    between atoms: C_12  and  C_13
REMARK                            x       y       z     vdW  Elec       q    Type
REMARK                         _______ _______ _______ _____ _____    ______ ____
ROOT
ATOM      1  C   UNL     1       6.486  -9.708  -0.346  0.00  0.00    +0.000 A 
ATOM      2  C   UNL     1       5.714  -8.999  -1.266  0.00  0.00    +0.000 A 
ATOM      3  C   UNL     1       7.326 -10.731  -0.783  0.00  0.00    +0.000 A 
ATOM      4  C   UNL     1       5.783  -9.313  -2.624  0.00  0.00    +0.000 A 
ATOM      5  C   UNL     1       7.396 -11.045  -2.140  0.00  0.00    +0.000 A 
ATOM      6  C   UNL     1       6.624 -10.336  -3.060  0.00  0.00    +0.000 A 
ENDROOT
BRANCH   2   8
ATOM      7  O   UNL     1       3.607  -7.979  -0.749  0.00  0.00    +0.000 OA
ATOM      8  C   UNL     1       4.830  -7.925  -0.831  0.00  0.00    +0.000 C 
BRANCH   8   9
ATOM      9  O   UNL     1       5.523  -6.797  -0.509  0.00  0.00    +0.000 OA
ATOM     10  H   UNL     1       4.927  -6.035  -0.349  0.00  0.00    +0.000 HD
ENDBRANCH   8   9
ENDBRANCH   2   8
BRANCH   1  11
ATOM     11  O   UNL     1       6.434  -9.414   0.984  0.00  0.00    +0.000 OA
BRANCH  11  13
ATOM     12  O   UNL     1       7.774  -7.515   1.253  0.00  0.00    +0.000 OA
ATOM     13  C   UNL     1       7.545  -8.700   1.456  0.00  0.00    +0.000 C 
ATOM     14  C   UNL     1       8.433  -9.604   2.258  0.00  0.00    +0.000 C 
ENDBRANCH  11  13
ENDBRANCH   1  11
TORSDOF 4
ENDMDL
MODEL 3
REMARK VINA RESULT:    -3.992     11.548     12.845
REMARK INTER + INTRA:          -5.502
REMARK INTER:                  -4.855
REMARK INTRA:                  -0.647
REMARK UNBOUND:                -0.693
REMARK  Name = 2244
REMARK  5 active torsions:
REMARK  status: ('A' for Active; 'I' for Inactive)
REMARK    1  A    between atoms: O_1  and  C_5
REMARK    2  A    between atoms: O_1  and  C_12
REMARK    3  A    between atoms: O_2  and  C_11
REMARK    4  A    between atoms: C_6  and  C_11
REMARK    5  A    between atoms: C_12  and  C_13
REMARK                            x       y       z     vdW  Elec       q    Type
REMARK                         _______ _______ _______ _____ _____    ______ ____
ROOT
ATOM      1  C   UNL     1       4.930  -5.643 -11.120  0.00  0.00    +0.000 A 
ATOM      2  C   UNL     1       4.375  -6.672 -10.360  0.00  0.00    +0.000 A 
ATOM      3  C   UNL     1       5.397  -4.489 -10.494  0.00  0.00    +0.000 A 
ATOM      4  C   UNL     1       4.288  -6.547  -8.973  0.00  0.00    +0.000 A 
ATOM      5  C   UNL     1       5.312  -4.363  -9.107  0.00  0.00    +0.000 A 
ATOM      6  C   UNL     1       4.757  -5.392  -8.348  0.00  0.00    +0.000 A 
ENDROOT
BRANCH   2   8
ATOM      7  O   UNL     1       4.191  -9.039 -10.698  0.00  0.00    +0.000 OA
ATOM      8  C   UNL     1       3.881  -7.888 -10.994  0.00  0.00    +0.000 C 
BRANCH   8   9
ATOM      9  O   UNL     1       3.001  -7.616 -11.997  0.00  0.00    +0.000 OA
ATOM     10  H   UNL     1       3.452  -7.516 -12.862  0.00  0.00    +0.000 HD
ENDBRANCH   8   9
ENDBRANCH   2   8
BRANCH   1  11
ATOM     11  O   UNL     1       5.025  -5.748 -12.476  0.00  0.00    +0.000 OA
BRANCH  11  13
ATOM     12  O   UNL     1       2.976  -4.765 -13.038  0.00  0.00    +0.000 OA
ATOM     13  C   UNL     1       4.188  -4.867 -13.178  0.00  0.00    +0.000 C 
ATOM     14  C   UNL     1       4.997  -4.051 -14.142  0.00  0.00    +0.000 C 
ENDBRANCH  11  13
ENDBRANCH   1  11
TORSDOF 4
ENDMDL
MODEL 4
REMARK VINA RESULT:    -3.991     10.740     12.050
REMARK INTER + INTRA:          -5.501
REMARK INTER:                  -4.965
REMARK INTRA:                  -0.536
REMARK UNBOUND:                -0.693
REMARK  Name = 2244
REMARK  5 active torsions:
REMARK  status: ('A' for Active; 'I' for Inactive)
REMARK    1  A    between atoms: O_1  and  C_5
REMARK    2  A    between atoms: O_1  and  C_12
REMARK    3  A    between atoms: O_2  and  C_11
REMARK    4  A    between atoms: C_6  and  C_11
REMARK    5  A    between atoms: C_12  and  C_13
REMARK                            x       y       z     vdW  Elec       q    Type
REMARK                         _______ _______ _______ _____ _____    ______ ____
ROOT
ATOM      1  C   UNL     1       3.985  -7.817 -10.178  0.00  0.00    +0.000 A 
ATOM      2  C   UNL     1       4.548  -6.552 -10.346  0.00  0.00    +0.000 A 
ATOM      3  C   UNL     1       3.621  -8.254  -8.905  0.00  0.00    +0.000 A 
ATOM      4  C   UNL     1       4.746  -5.724  -9.241  0.00  0.00    +0.000 A 
ATOM      5  C   UNL     1       3.820  -7.427  -7.799  0.00  0.00    +0.000 A 
ATOM      6  C   UNL     1       4.383  -6.163  -7.968  0.00  0.00    +0.000 A 
ENDROOT
BRANCH   2   8
ATOM      7  O   UNL     1       4.377  -5.189 -12.311  0.00  0.00    +0.000 OA
ATOM      8  C   UNL     1       4.933  -6.075 -11.668  0.00  0.00    +0.000 C 
BRANCH   8   9
ATOM      9  O   UNL     1       6.021  -6.737 -12.149  0.00  0.00    +0.000 OA
ATOM     10  H   UNL     1       6.858  -6.282 -11.915  0.00  0.00    +0.000 HD
ENDBRANCH   8   9
ENDBRANCH   2   8
BRANCH   1  11
ATOM     11  O   UNL     1       3.780  -8.640 -11.245  0.00  0.00    +0.000 OA
BRANCH  11  13
ATOM     12  O   UNL     1       1.924 -10.064 -11.208  0.00  0.00    +0.000 OA
ATOM     13  C   UNL     1       2.435  -8.980 -11.456  0.00  0.00    +0.000 C 
ATOM     14  C   UNL     1       1.697  -7.812 -12.039  0.00  0.00    +0.000 C 
ENDBRANCH  11  13
ENDBRANCH   1  11
TORSDOF 4
ENDMDL
MODEL 5
REMARK VINA RESULT:    -3.980      1.876      2.528
REMARK INTER + INTRA:          -5.487
REMARK INTER:                  -4.859
REMARK INTRA:                  -0.628
REMARK UNBOUND:                -0.693
REMARK  Name = 2244
REMARK  5 active torsions:
REMARK  status: ('A' for Active; 'I' for Inactive)
REMARK    1  A    between atoms: O_1  and  C_5
REMARK    2  A    between atoms: O_1  and  C_12
REMARK    3  A    between atoms: O_2  and  C_11
REMARK    4  A    between atoms: C_6  and  C_11
REMARK    5  A    between atoms: C_12  and  C_13
REMARK                            x       y       z     vdW  Elec       q    Type
REMARK                         _______ _______ _______ _____ _____    ______ ____
ROOT
ATOM      1  C   UNL     1       5.670  -7.690  -1.258  0.00  0.00    +0.000 A 
ATOM      2  C   UNL     1       6.314  -8.583  -0.402  0.00  0.00    +0.000 A 
ATOM      3  C   UNL     1       5.348  -8.080  -2.558  0.00  0.00    +0.000 A 
ATOM      4  C   UNL     1       6.634  -9.866  -0.845  0.00  0.00    +0.000 A 
ATOM      5  C   UNL     1       5.669  -9.363  -3.002  0.00  0.00    +0.000 A 
ATOM      6  C   UNL     1       6.312 -10.255  -2.145  0.00  0.00    +0.000 A 
ENDROOT
BRANCH   2   8
ATOM      7  O   UNL     1       7.732  -7.737   1.336  0.00  0.00    +0.000 OA
ATOM      8  C   UNL     1       6.657  -8.196   0.960  0.00  0.00    +0.000 C 
BRANCH   8   9
ATOM      9  O   UNL     1       5.623  -8.404   1.822  0.00  0.00    +0.000 OA
ATOM     10  H   UNL     1       4.769  -8.504   1.351  0.00  0.00    +0.000 HD
ENDBRANCH   8   9
ENDBRANCH   2   8
BRANCH   1  11
ATOM     11  O   UNL     1       5.346  -6.433  -0.844  0.00  0.00    +0.000 OA
BRANCH  11  13
ATOM     12  O   UNL     1       3.355  -6.900   0.294  0.00  0.00    +0.000 OA
ATOM     13  C   UNL     1       3.987  -6.263  -0.539  0.00  0.00    +0.000 C 
ATOM     14  C   UNL     1       3.402  -5.176  -1.390  0.00  0.00    +0.000 C 
ENDBRANCH  11  13
ENDBRANCH   1  11
TORSDOF 4
ENDMDL
MODEL 6
REMARK VINA RESULT:    -3.865     10.653     11.938
REMARK INTER + INTRA:          -5.349
REMARK INTER:                  -4.638
REMARK INTRA:                  -0.711
REMARK UNBOUND:                -0.693
REMARK  Name = 2244
REMARK  5 active torsions:
REMARK  status: ('A' for Active; 'I' for Inactive)
REMARK    1  A    between atoms: O_1  and  C_5
REMARK    2  A    between atoms: O_1  and  C_12
REMARK    3  A    between atoms: O_2  and  C_11
REMARK    4  A    between atoms: C_6  and  C_11
REMARK    5  A    between atoms: C_12  and  C_13
REMARK                            x       y       z     vdW  Elec       q    Type
REMARK                         _______ _______ _______ _____ _____    ______ ____
ROOT
ATOM      1  C   UNL     1       4.956  -5.322  -9.615  0.00  0.00    +0.000 A 
ATOM      2  C   UNL     1       4.869  -6.195 -10.699  0.00  0.00    +0.000 A 
ATOM      3  C   UNL     1       4.510  -5.726  -8.357  0.00  0.00    +0.000 A 
ATOM      4  C   UNL     1       4.337  -7.472 -10.525  0.00  0.00    +0.000 A 
ATOM      5  C   UNL     1       3.977  -7.003  -8.182  0.00  0.00    +0.000 A 
ATOM      6  C   UNL     1       3.891  -7.876  -9.267  0.00  0.00    +0.000 A 
ENDROOT
BRANCH   2   8
ATOM      7  O   UNL     1       6.386  -6.128 -12.554  0.00  0.00    +0.000 OA
ATOM      8  C   UNL     1       5.332  -5.793 -12.021  0.00  0.00    +0.000 C 
BRANCH   8   9
ATOM      9  O   UNL     1       4.442  -4.970 -12.642  0.00  0.00    +0.000 OA
ATOM     10  H   UNL     1       4.826  -4.086 -12.822  0.00  0.00    +0.000 HD
ENDBRANCH   8   9
ENDBRANCH   2   8
BRANCH   1  11
ATOM     11  O   UNL     1       5.475  -4.070  -9.764  0.00  0.00    +0.000 OA
BRANCH  11  13
ATOM     12  O   UNL     1       3.593  -2.926 -10.556  0.00  0.00    +0.000 OA
ATOM     13  C   UNL     1       4.514  -3.048  -9.759  0.00  0.00    +0.000 C 
ATOM     14  C   UNL     1       4.774  -2.106  -8.621  0.00  0.00    +0.000 C 
ENDBRANCH  11  13
ENDBRANCH   1  11
TORSDOF 4
ENDMDL
MODEL 7
REMARK VINA RESULT:    -3.848     10.880     12.081
REMARK INTER + INTRA:          -5.329
REMARK INTER:                  -4.831
REMARK INTRA:                  -0.498
REMARK UNBOUND:                -0.693
REMARK  Name = 2244
REMARK  5 active torsions:
REMARK  status: ('A' for Active; 'I' for Inactive)
REMARK    1  A    between atoms: O_1  and  C_5
REMARK    2  A    between atoms: O_1  and  C_12
REMARK    3  A    between atoms: O_2  and  C_11
REMARK    4  A    between atoms: C_6  and  C_11
REMARK    5  A    between atoms: C_12  and  C_13
REMARK                            x       y       z     vdW  Elec       q    Type
REMARK                         _______ _______ _______ _____ _____    ______ ____
ROOT
ATOM      1  C   UNL     1       4.314  -5.643 -10.599  0.00  0.00    +0.000 A 
ATOM      2  C   UNL     1       4.719  -5.078  -9.390  0.00  0.00    +0.000 A 
ATOM      3  C   UNL     1       3.858  -6.960 -10.636  0.00  0.00    +0.000 A 
ATOM      4  C   UNL     1       4.666  -5.831  -8.217  0.00  0.00    +0.000 A 
ATOM      5  C   UNL     1       3.805  -7.713  -9.463  0.00  0.00    +0.000 A 
ATOM      6  C   UNL     1       4.210  -7.148  -8.254  0.00  0.00    +0.000 A 
ENDROOT
BRANCH   2   8
ATOM      7  O   UNL     1       4.641  -2.765  -8.766  0.00  0.00    +0.000 OA
ATOM      8  C   UNL     1       5.197  -3.703  -9.329  0.00  0.00    +0.000 C 
BRANCH   8   9
ATOM      9  O   UNL     1       6.378  -3.547  -9.990  0.00  0.00    +0.000 OA
ATOM     10  H   UNL     1       7.113  -3.331  -9.377  0.00  0.00    +0.000 HD
ENDBRANCH   8   9
ENDBRANCH   2   8
BRANCH   1  11
ATOM     11  O   UNL     1       4.356  -4.923 -11.756  0.00  0.00    +0.000 OA
BRANCH  11  13
ATOM     12  O   UNL     1       6.423  -5.864 -12.322  0.00  0.00    +0.000 OA
ATOM     13  C   UNL     1       5.375  -5.315 -12.637  0.00  0.00    +0.000 C 
ATOM     14  C   UNL     1       4.999  -4.962 -14.046  0.00  0.00    +0.000 C 
ENDBRANCH  11  13
ENDBRANCH   1  11
TORSDOF 4
ENDMDL
MODEL 8
REMARK VINA RESULT:    -3.761      1.431      2.042
REMARK INTER + INTRA:          -5.223
REMARK INTER:                  -4.606
REMARK INTRA:                  -0.617
REMARK UNBOUND:                -0.693
REMARK  Name = 2244
REMARK  5 active torsions:
REMARK  status: ('A' for Active; 'I' for Inactive)
REMARK    1  A    between atoms: O_1  and  C_5
REMARK    2  A    between atoms: O_1  and  C_12
REMARK    3  A    between atoms: O_2  and  C_11
REMARK    4  A    between atoms: C_6  and  C_11
REMARK    5  A    between atoms: C_12  and  C_13
REMARK                            x       y       z     vdW  Elec       q    Type
REMARK                         _______ _______ _______ _____ _____    ______ ____
ROOT
ATOM      1  C   UNL     1       7.563 -10.464   0.676  0.00  0.00    +0.000 A 
ATOM      2  C   UNL     1       8.723 -11.022   1.213  0.00  0.00    +0.000 A 
ATOM      3  C   UNL     1       7.212 -10.724  -0.648  0.00  0.00    +0.000 A 
ATOM      4  C   UNL     1       9.531 -11.842   0.425  0.00  0.00    +0.000 A 
ATOM      5  C   UNL     1       8.020 -11.543  -1.436  0.00  0.00    +0.000 A 
ATOM      6  C   UNL     1       9.179 -12.101  -0.900  0.00  0.00    +0.000 A 
ENDROOT
BRANCH   2   8
ATOM      7  O   UNL     1       9.292 -11.609   3.466  0.00  0.00    +0.000 OA
ATOM      8  C   UNL     1       9.107 -10.765   2.594  0.00  0.00    +0.000 C 
BRANCH   8   9
ATOM      9  O   UNL     1       9.247  -9.433   2.842  0.00  0.00    +0.000 OA
ATOM     10  H   UNL     1       9.782  -9.266   3.647  0.00  0.00    +0.000 HD
ENDBRANCH   8   9
ENDBRANCH   2   8
BRANCH   1  11
ATOM     11  O   UNL     1       6.758  -9.663   1.431  0.00  0.00    +0.000 OA
BRANCH  11  13
ATOM     12  O   UNL     1       7.705  -7.538   1.170  0.00  0.00    +0.000 OA
ATOM     13  C   UNL     1       6.767  -8.314   1.042  0.00  0.00    +0.000 C 
ATOM     14  C   UNL     1       5.445  -7.947   0.437  0.00  0.00    +0.000 C 
ENDBRANCH  11  13
ENDBRANCH   1  11
TORSDOF 4
ENDMDL
MODEL 9
REMARK VINA RESULT:    -3.700     12.769     13.835
REMARK INTER + INTRA:          -5.150
REMARK INTER:                  -4.454
REMARK INTRA:                  -0.696
REMARK UNBOUND:                -0.693
REMARK  Name = 2244
REMARK  5 active torsions:
REMARK  status: ('A' for Active; 'I' for Inactive)
REMARK    1  A    between atoms: O_1  and  C_5
REMARK    2  A    between atoms: O_1  and  C_12
REMARK    3  A    between atoms: O_2  and  C_11
REMARK    4  A    between atoms: C_6  and  C_11
REMARK    5  A    between atoms: C_12  and  C_13
REMARK                            x       y       z     vdW  Elec       q    Type
REMARK                         _______ _______ _______ _____ _____    ______ ____
ROOT
ATOM      1  C   UNL     1      16.795  -8.687  -8.038  0.00  0.00    +0.000 A 
ATOM      2  C   UNL     1      17.178  -9.687  -8.931  0.00  0.00    +0.000 A 
ATOM      3  C   UNL     1      16.147  -9.025  -6.850  0.00  0.00    +0.000 A 
ATOM      4  C   UNL     1      16.914 -11.025  -8.637  0.00  0.00    +0.000 A 
ATOM      5  C   UNL     1      15.883 -10.362  -6.555  0.00  0.00    +0.000 A 
ATOM      6  C   UNL     1      16.266 -11.361  -7.449  0.00  0.00    +0.000 A 
ENDROOT
BRANCH   2   8
ATOM      7  O   UNL     1      18.984  -9.714 -10.507  0.00  0.00    +0.000 OA
ATOM      8  C   UNL     1      17.857  -9.356 -10.177  0.00  0.00    +0.000 C 
BRANCH   8   9
ATOM      9  O   UNL     1      17.087  -8.573 -10.982  0.00  0.00    +0.000 OA
ATOM     10  H   UNL     1      17.631  -8.026 -11.589  0.00  0.00    +0.000 HD
ENDBRANCH   8   9
ENDBRANCH   2   8
BRANCH   1  11
ATOM     11  O   UNL     1      17.046  -7.375  -8.306  0.00  0.00    +0.000 OA
BRANCH  11  13
ATOM     12  O   UNL     1      15.146  -6.840  -9.564  0.00  0.00    +0.000 OA
ATOM     13  C   UNL     1      15.902  -6.627  -8.625  0.00  0.00    +0.000 C 
ATOM     14  C   UNL     1      15.730  -5.509  -7.640  0.00  0.00    +0.000 C 
ENDBRANCH  11  13
ENDBRANCH   1  11
TORSDOF 4
ENDMDL
