ATOM      1  N   GLN A   1       6.962  -9.784   7.712  1.00  0.00    -0.066 N 
ATOM      2  CA  GLN A   1       7.376  -9.381   6.330  1.00  0.00     0.275 C 
ATOM      3  C   GLN A   1       7.773  -7.896   6.260  1.00  0.00     0.249 C 
ATOM      4  O   GLN A   1       7.360  -7.088   7.090  1.00  0.00    -0.271 OA
ATOM      5  CB  GLN A   1       6.283  -9.671   5.265  1.00  0.00     0.052 C 
ATOM      6  CG  GLN A   1       6.183 -11.157   4.870  1.00  0.00     0.105 C 
ATOM      7  CD  GLN A   1       5.071 -11.453   3.860  1.00  0.00     0.215 C 
ATOM      8  OE1 GLN A   1       4.357 -10.584   3.372  1.00  0.00    -0.274 OA
ATOM      9  NE2 GLN A   1       4.879 -12.703   3.498  1.00  0.00    -0.370 N 
ATOM     10  H1  GLN A   1       7.700  -9.598   8.376  1.00  0.00     0.275 HD
ATOM     11  H2  GLN A   1       6.141  -9.270   8.007  1.00  0.00     0.275 HD
ATOM     12  H3  GLN A   1       6.749 -10.771   7.760  1.00  0.00     0.275 HD
ATOM     13 1HE2 GLN A   1       4.144 -12.906   2.834  1.00  0.00     0.159 HD
ATOM     14 2HE2 GLN A   1       5.452 -13.442   3.883  1.00  0.00     0.159 HD
ATOM     15  N   ASN A   2       8.533  -7.524   5.219  1.00  0.00    -0.346 N 
ATOM     16  CA  ASN A   2       8.899  -6.129   4.901  1.00  0.00     0.185 C 
ATOM     17  C   ASN A   2       7.718  -5.287   4.372  1.00  0.00     0.241 C 
ATOM     18  O   ASN A   2       7.722  -4.063   4.507  1.00  0.00    -0.271 OA
ATOM     19  CB  ASN A   2      10.011  -6.163   3.838  1.00  0.00     0.137 C 
ATOM     20  CG  ASN A   2      11.264  -6.893   4.307  1.00  0.00     0.217 C 
ATOM     21  OD1 ASN A   2      11.930  -6.494   5.254  1.00  0.00    -0.274 OA
ATOM     22  ND2 ASN A   2      11.618  -7.993   3.678  1.00  0.00    -0.370 N 
ATOM     23  H   ASN A   2       8.887  -8.248   4.601  1.00  0.00     0.163 HD
ATOM     24 1HD2 ASN A   2      12.448  -8.473   3.993  1.00  0.00     0.159 HD
ATOM     25 2HD2 ASN A   2      11.096  -8.330   2.881  1.00  0.00     0.159 HD
ATOM     26  N   LEU A   3       6.730  -5.949   3.743  1.00  0.00    -0.346 N 
ATOM     27  CA  LEU A   3       5.561  -5.339   3.077  1.00  0.00     0.177 C 
ATOM     28  C   LEU A   3       5.959  -4.351   1.960  1.00  0.00     0.241 C 
ATOM     29  O   LEU A   3       5.340  -3.298   1.775  1.00  0.00    -0.271 OA
ATOM     30  CB  LEU A   3       4.570  -4.770   4.120  1.00  0.00     0.038 C 
ATOM     31  CG  LEU A   3       4.107  -5.785   5.184  1.00  0.00    -0.020 C 
ATOM     32  CD1 LEU A   3       3.287  -5.068   6.257  1.00  0.00     0.009 C 
ATOM     33  CD2 LEU A   3       3.239  -6.900   4.591  1.00  0.00     0.009 C 
ATOM     34  H   LEU A   3       6.837  -6.951   3.660  1.00  0.00     0.163 HD
ATOM     35  N   ASN A   4       7.016  -4.706   1.215  1.00  0.00    -0.346 N 
ATOM     36  CA  ASN A   4       7.574  -3.888   0.125  1.00  0.00     0.185 C 
ATOM     37  C   ASN A   4       8.240  -4.720  -0.986  1.00  0.00     0.241 C 
ATOM     38  O   ASN A   4       7.857  -4.620  -2.150  1.00  0.00    -0.271 OA
ATOM     39  CB  ASN A   4       8.544  -2.855   0.733  1.00  0.00     0.137 C 
ATOM     40  CG  ASN A   4       9.118  -1.899  -0.308  1.00  0.00     0.217 C 
ATOM     41  OD1 ASN A   4       8.429  -1.416  -1.198  1.00  0.00    -0.274 OA
ATOM     42  ND2 ASN A   4      10.392  -1.590  -0.231  1.00  0.00    -0.370 N 
ATOM     43  H   ASN A   4       7.415  -5.620   1.400  1.00  0.00     0.163 HD
ATOM     44 1HD2 ASN A   4      10.782  -0.970  -0.926  1.00  0.00     0.159 HD
ATOM     45 2HD2 ASN A   4      10.972  -1.973   0.501  1.00  0.00     0.159 HD
ATOM     46  N   ASP A   5       9.213  -5.561  -0.625  1.00  0.00    -0.345 N 
ATOM     47  CA  ASP A   5       9.999  -6.399  -1.549  1.00  0.00     0.186 C 
ATOM     48  C   ASP A   5      10.602  -5.591  -2.732  1.00  0.00     0.241 C 
ATOM     49  O   ASP A   5      11.019  -4.444  -2.546  1.00  0.00    -0.271 OA
ATOM     50  CB  ASP A   5       9.163  -7.639  -1.934  1.00  0.00     0.147 C 
ATOM     51  CG  ASP A   5      10.022  -8.734  -2.583  1.00  0.00     0.175 C 
ATOM     52  OD1 ASP A   5       9.880  -8.942  -3.810  1.00  0.00    -0.648 OA
ATOM     53  OD2 ASP A   5      10.911  -9.299  -1.909  1.00  0.00    -0.648 OA
ATOM     54  H   ASP A   5       9.484  -5.552   0.346  1.00  0.00     0.163 HD
ATOM     55  N   ARG A   6      10.699  -6.174  -3.940  1.00  0.00    -0.346 N 
ATOM     56  CA  ARG A   6      11.365  -5.595  -5.125  1.00  0.00     0.176 C 
ATOM     57  C   ARG A   6      10.404  -4.794  -6.015  1.00  0.00     0.241 C 
ATOM     58  O   ARG A   6      10.617  -4.707  -7.218  1.00  0.00    -0.271 OA
ATOM     59  CB  ARG A   6      12.121  -6.700  -5.904  1.00  0.00     0.036 C 
ATOM     60  CG  ARG A   6      13.399  -7.226  -5.223  1.00  0.00     0.023 C 
ATOM     61  CD  ARG A   6      13.169  -8.123  -4.002  1.00  0.00     0.138 C 
ATOM     62  NE  ARG A   6      14.431  -8.734  -3.542  1.00  0.00    -0.227 N 
ATOM     63  CZ  ARG A   6      14.575  -9.629  -2.579  1.00  0.00     0.665 C 
ATOM     64  NH1 ARG A   6      15.759 -10.098  -2.298  1.00  0.00    -0.235 N 
ATOM     65  NH2 ARG A   6      13.573 -10.074  -1.877  1.00  0.00    -0.235 N 
ATOM     66  H   ARG A   6      10.298  -7.105  -4.048  1.00  0.00     0.163 HD
ATOM     67  HE  ARG A   6      15.278  -8.439  -4.010  1.00  0.00     0.177 HD
ATOM     68 HH11 ARG A   6      16.567  -9.787  -2.813  1.00  0.00     0.174 HD
ATOM     69 HH12 ARG A   6      15.877 -10.784  -1.570  1.00  0.00     0.174 HD
ATOM     70 HH21 ARG A   6      12.632  -9.714  -2.042  1.00  0.00     0.174 HD
ATOM     71 HH22 ARG A   6      13.716 -10.745  -1.143  1.00  0.00     0.174 HD
ATOM     72  N   LEU A   7       9.338  -4.207  -5.462  1.00  0.00    -0.346 N 
ATOM     73  CA  LEU A   7       8.294  -3.486  -6.229  1.00  0.00     0.177 C 
ATOM     74  C   LEU A   7       8.845  -2.376  -7.157  1.00  0.00     0.241 C 
ATOM     75  O   LEU A   7       8.241  -2.102  -8.195  1.00  0.00    -0.271 OA
ATOM     76  CB  LEU A   7       7.250  -2.899  -5.250  1.00  0.00     0.038 C 
ATOM     77  CG  LEU A   7       5.852  -3.533  -5.388  1.00  0.00    -0.020 C 
ATOM     78  CD1 LEU A   7       5.809  -5.008  -4.978  1.00  0.00     0.009 C 
ATOM     79  CD2 LEU A   7       4.849  -2.774  -4.521  1.00  0.00     0.009 C 
ATOM     80  H   LEU A   7       9.219  -4.318  -4.462  1.00  0.00     0.163 HD
ATOM     81  N   ALA A   8       9.994  -1.775  -6.827  1.00  0.00    -0.346 N 
ATOM     82  CA  ALA A   8      10.672  -0.780  -7.668  1.00  0.00     0.172 C 
ATOM     83  C   ALA A   8      11.243  -1.349  -8.990  1.00  0.00     0.240 C 
ATOM     84  O   ALA A   8      11.387  -0.597  -9.958  1.00  0.00    -0.271 OA
ATOM     85  CB  ALA A   8      11.780  -0.128  -6.826  1.00  0.00     0.042 C 
ATOM     86  H   ALA A   8      10.412  -2.010  -5.939  1.00  0.00     0.163 HD
ATOM     87  N   SER A   9      11.547  -2.655  -9.050  1.00  0.00    -0.344 N 
ATOM     88  CA  SER A   9      12.190  -3.329 -10.198  1.00  0.00     0.200 C 
ATOM     89  C   SER A   9      11.684  -4.762 -10.399  1.00  0.00     0.243 C 
ATOM     90  O   SER A   9      12.436  -5.646 -10.808  1.00  0.00    -0.271 OA
ATOM     91  CB  SER A   9      13.723  -3.334 -10.055  1.00  0.00     0.199 C 
ATOM     92  OG  SER A   9      14.267  -2.032  -9.871  1.00  0.00    -0.398 OA
ATOM     93  H   SER A   9      11.389  -3.224  -8.221  1.00  0.00     0.163 HD
ATOM     94  HG  SER A   9      14.185  -1.529 -10.706  1.00  0.00     0.209 HD
ATOM     95  N   TYR A  10      10.406  -5.028 -10.109  1.00  0.00    -0.346 N 
ATOM     96  CA  TYR A  10       9.861  -6.398 -10.048  1.00  0.00     0.180 C 
ATOM     97  C   TYR A  10      10.033  -7.169 -11.367  1.00  0.00     0.241 C 
ATOM     98  O   TYR A  10      10.289  -8.373 -11.368  1.00  0.00    -0.271 OA
ATOM     99  CB  TYR A  10       8.381  -6.332  -9.639  1.00  0.00     0.073 C 
ATOM    100  CG  TYR A  10       7.889  -7.545  -8.875  1.00  0.00    -0.056 A 
ATOM    101  CD1 TYR A  10       7.529  -8.723  -9.553  1.00  0.00     0.010 A 
ATOM    102  CD2 TYR A  10       7.777  -7.475  -7.474  1.00  0.00     0.010 A 
ATOM    103  CE1 TYR A  10       6.999  -9.810  -8.833  1.00  0.00     0.037 A 
ATOM    104  CE2 TYR A  10       7.245  -8.557  -6.748  1.00  0.00     0.037 A 
ATOM    105  CZ  TYR A  10       6.833  -9.723  -7.431  1.00  0.00     0.065 A 
ATOM    106  OH  TYR A  10       6.341 -10.786  -6.741  1.00  0.00    -0.361 OA
ATOM    107  H   TYR A  10       9.841  -4.272  -9.739  1.00  0.00     0.163 HD
ATOM    108  HH  TYR A  10       5.953 -10.539  -5.880  1.00  0.00     0.217 HD
ATOM    109  N   LEU A  11       9.984  -6.449 -12.493  1.00  0.00    -0.346 N 
ATOM    110  CA  LEU A  11      10.195  -6.988 -13.837  1.00  0.00     0.177 C 
ATOM    111  C   LEU A  11      11.608  -7.569 -14.011  1.00  0.00     0.241 C 
ATOM    112  O   LEU A  11      11.774  -8.581 -14.688  1.00  0.00    -0.271 OA
ATOM    113  CB  LEU A  11       9.945  -5.886 -14.894  1.00  0.00     0.038 C 
ATOM    114  CG  LEU A  11       8.597  -5.134 -14.805  1.00  0.00    -0.020 C 
ATOM    115  CD1 LEU A  11       8.708  -3.808 -14.043  1.00  0.00     0.009 C 
ATOM    116  CD2 LEU A  11       8.087  -4.803 -16.208  1.00  0.00     0.009 C 
ATOM    117  H   LEU A  11       9.845  -5.454 -12.392  1.00  0.00     0.163 HD
ATOM    118  N   ASP A  12      12.620  -6.960 -13.381  1.00  0.00    -0.346 N 
ATOM    119  CA  ASP A  12      14.021  -7.366 -13.500  1.00  0.00     0.186 C 
ATOM    120  C   ASP A  12      14.356  -8.576 -12.609  1.00  0.00     0.241 C 
ATOM    121  O   ASP A  12      15.191  -9.402 -12.989  1.00  0.00    -0.271 OA
ATOM    122  CB  ASP A  12      14.919  -6.165 -13.158  1.00  0.00     0.147 C 
ATOM    123  CG  ASP A  12      16.413  -6.401 -13.461  1.00  0.00     0.175 C 
ATOM    124  OD1 ASP A  12      16.750  -7.133 -14.422  1.00  0.00    -0.648 OA
ATOM    125  OD2 ASP A  12      17.266  -5.820 -12.748  1.00  0.00    -0.648 OA
ATOM    126  H   ASP A  12      12.418  -6.180 -12.773  1.00  0.00     0.163 HD
ATOM    127  N   LYS A  13      13.683  -8.744 -11.455  1.00  0.00    -0.346 N 
ATOM    128  CA  LYS A  13      13.781 -10.017 -10.716  1.00  0.00     0.176 C 
ATOM    129  C   LYS A  13      13.022 -11.124 -11.457  1.00  0.00     0.241 C 
ATOM    130  O   LYS A  13      13.536 -12.227 -11.603  1.00  0.00    -0.271 OA
ATOM    131  CB  LYS A  13      13.427  -9.894  -9.217  1.00  0.00     0.035 C 
ATOM    132  CG  LYS A  13      11.948  -9.656  -8.849  1.00  0.00     0.004 C 
ATOM    133  CD  LYS A  13      11.627 -10.249  -7.465  1.00  0.00     0.027 C 
ATOM    134  CE  LYS A  13      10.114 -10.200  -7.213  1.00  0.00     0.229 C 
ATOM    135  NZ  LYS A  13       9.748 -10.765  -5.881  1.00  0.00    -0.079 N 
ATOM    136  H   LYS A  13      13.059  -8.010 -11.135  1.00  0.00     0.163 HD
ATOM    137  HZ1 LYS A  13       9.974 -10.119  -5.118  1.00  0.00     0.274 HD
ATOM    138  HZ2 LYS A  13       8.750 -10.930  -5.813  1.00  0.00     0.274 HD
ATOM    139  HZ3 LYS A  13      10.207 -11.652  -5.696  1.00  0.00     0.274 HD
ATOM    140  N   VAL A  14      11.838 -10.822 -12.005  1.00  0.00    -0.346 N 
ATOM    141  CA  VAL A  14      10.990 -11.793 -12.716  1.00  0.00     0.180 C 
ATOM    142  C   VAL A  14      11.637 -12.320 -13.991  1.00  0.00     0.241 C 
ATOM    143  O   VAL A  14      11.669 -13.531 -14.189  1.00  0.00    -0.271 OA
ATOM    144  CB  VAL A  14       9.581 -11.211 -12.952  1.00  0.00     0.009 C 
ATOM    145  CG1 VAL A  14       8.805 -11.878 -14.088  1.00  0.00     0.012 C 
ATOM    146  CG2 VAL A  14       8.761 -11.365 -11.667  1.00  0.00     0.012 C 
ATOM    147  H   VAL A  14      11.468  -9.888 -11.845  1.00  0.00     0.163 HD
ATOM    148  N   ARG A  15      12.229 -11.455 -14.822  1.00  0.00    -0.346 N 
ATOM    149  CA  ARG A  15      12.884 -11.860 -16.091  1.00  0.00     0.176 C 
ATOM    150  C   ARG A  15      14.026 -12.870 -15.890  1.00  0.00     0.241 C 
ATOM    151  O   ARG A  15      14.300 -13.682 -16.770  1.00  0.00    -0.271 OA
ATOM    152  CB  ARG A  15      13.319 -10.604 -16.877  1.00  0.00     0.036 C 
ATOM    153  CG  ARG A  15      14.500  -9.802 -16.319  1.00  0.00     0.023 C 
ATOM    154  CD  ARG A  15      15.901 -10.245 -16.757  1.00  0.00     0.138 C 
ATOM    155  NE  ARG A  15      16.904  -9.405 -16.082  1.00  0.00    -0.227 N 
ATOM    156  CZ  ARG A  15      18.214  -9.455 -16.155  1.00  0.00     0.665 C 
ATOM    157  NH1 ARG A  15      18.857 -10.333 -16.873  1.00  0.00    -0.235 N 
ATOM    158  NH2 ARG A  15      18.888  -8.580 -15.475  1.00  0.00    -0.235 N 
ATOM    159  H   ARG A  15      12.143 -10.466 -14.593  1.00  0.00     0.163 HD
ATOM    160  HE  ARG A  15      16.559  -8.665 -15.471  1.00  0.00     0.177 HD
ATOM    161 HH11 ARG A  15      18.339 -11.001 -17.419  1.00  0.00     0.174 HD
ATOM    162 HH12 ARG A  15      19.866 -10.331 -16.907  1.00  0.00     0.174 HD
ATOM    163 HH21 ARG A  15      18.337  -7.898 -14.947  1.00  0.00     0.174 HD
ATOM    164 HH22 ARG A  15      19.892  -8.550 -15.490  1.00  0.00     0.174 HD
ATOM    165  N   ALA A  16      14.669 -12.814 -14.721  1.00  0.00    -0.346 N 
ATOM    166  CA  ALA A  16      15.743 -13.714 -14.290  1.00  0.00     0.172 C 
ATOM    167  C   ALA A  16      15.270 -14.983 -13.534  1.00  0.00     0.240 C 
ATOM    168  O   ALA A  16      16.100 -15.844 -13.234  1.00  0.00    -0.271 OA
ATOM    169  CB  ALA A  16      16.707 -12.882 -13.434  1.00  0.00     0.042 C 
ATOM    170  H   ALA A  16      14.393 -12.068 -14.096  1.00  0.00     0.163 HD
ATOM    171  N   LEU A  17      13.973 -15.111 -13.203  1.00  0.00    -0.346 N 
ATOM    172  CA  LEU A  17      13.447 -16.153 -12.299  1.00  0.00     0.177 C 
ATOM    173  C   LEU A  17      12.209 -16.913 -12.809  1.00  0.00     0.241 C 
ATOM    174  O   LEU A  17      12.128 -18.128 -12.616  1.00  0.00    -0.271 OA
ATOM    175  CB  LEU A  17      13.119 -15.512 -10.933  1.00  0.00     0.038 C 
ATOM    176  CG  LEU A  17      14.329 -14.988 -10.132  1.00  0.00    -0.020 C 
ATOM    177  CD1 LEU A  17      13.840 -14.273  -8.869  1.00  0.00     0.009 C 
ATOM    178  CD2 LEU A  17      15.268 -16.115  -9.689  1.00  0.00     0.009 C 
ATOM    179  H   LEU A  17      13.339 -14.382 -13.502  1.00  0.00     0.163 HD
ATOM    180  N   GLU A  18      11.236 -16.231 -13.424  1.00  0.00    -0.346 N 
ATOM    181  CA  GLU A  18       9.919 -16.803 -13.745  1.00  0.00     0.177 C 
ATOM    182  C   GLU A  18       9.219 -16.102 -14.920  1.00  0.00     0.241 C 
ATOM    183  O   GLU A  18       8.377 -15.222 -14.751  1.00  0.00    -0.271 OA
ATOM    184  CB  GLU A  18       9.024 -16.843 -12.486  1.00  0.00     0.045 C 
ATOM    185  CG  GLU A  18       8.883 -15.529 -11.695  1.00  0.00     0.116 C 
ATOM    186  CD  GLU A  18       8.157 -15.740 -10.348  1.00  0.00     0.172 C 
ATOM    187  OE1 GLU A  18       8.566 -15.117  -9.337  1.00  0.00    -0.648 OA
ATOM    188  OE2 GLU A  18       7.167 -16.510 -10.281  1.00  0.00    -0.648 OA
ATOM    189  H   GLU A  18      11.373 -15.241 -13.600  1.00  0.00     0.163 HD
ATOM    190  N   GLU A  19       9.466 -16.587 -16.139  1.00  0.00    -0.346 N 
ATOM    191  CA  GLU A  19       8.705 -16.180 -17.336  1.00  0.00     0.177 C 
ATOM    192  C   GLU A  19       7.189 -16.467 -17.215  1.00  0.00     0.241 C 
ATOM    193  O   GLU A  19       6.390 -15.910 -17.967  1.00  0.00    -0.271 OA
ATOM    194  CB  GLU A  19       9.306 -16.847 -18.586  1.00  0.00     0.045 C 
ATOM    195  CG  GLU A  19       9.094 -18.367 -18.647  1.00  0.00     0.116 C 
ATOM    196  CD  GLU A  19       9.845 -19.023 -19.825  1.00  0.00     0.172 C 
ATOM    197  OE1 GLU A  19       9.856 -18.466 -20.952  1.00  0.00    -0.648 OA
ATOM    198  OE2 GLU A  19      10.418 -20.126 -19.641  1.00  0.00    -0.648 OA
ATOM    199  H   GLU A  19      10.199 -17.280 -16.251  1.00  0.00     0.163 HD
ATOM    200  N   ALA A  20       6.779 -17.277 -16.229  1.00  0.00    -0.346 N 
ATOM    201  CA  ALA A  20       5.386 -17.547 -15.875  1.00  0.00     0.172 C 
ATOM    202  C   ALA A  20       4.623 -16.301 -15.369  1.00  0.00     0.240 C 
ATOM    203  O   ALA A  20       3.414 -16.196 -15.592  1.00  0.00    -0.271 OA
ATOM    204  CB  ALA A  20       5.397 -18.652 -14.813  1.00  0.00     0.042 C 
ATOM    205  H   ALA A  20       7.491 -17.697 -15.646  1.00  0.00     0.163 HD
ATOM    206  N   ASN A  21       5.300 -15.340 -14.716  1.00  0.00    -0.346 N 
ATOM    207  CA  ASN A  21       4.679 -14.069 -14.292  1.00  0.00     0.185 C 
ATOM    208  C   ASN A  21       4.582 -13.041 -15.447  1.00  0.00     0.241 C 
ATOM    209  O   ASN A  21       3.802 -12.092 -15.370  1.00  0.00    -0.271 OA
ATOM    210  CB  ASN A  21       5.434 -13.509 -13.068  1.00  0.00     0.137 C 
ATOM    211  CG  ASN A  21       4.491 -12.849 -12.070  1.00  0.00     0.217 C 
ATOM    212  OD1 ASN A  21       3.667 -13.502 -11.444  1.00  0.00    -0.274 OA
ATOM    213  ND2 ASN A  21       4.571 -11.555 -11.868  1.00  0.00    -0.370 N 
ATOM    214  H   ASN A  21       6.293 -15.471 -14.554  1.00  0.00     0.163 HD
ATOM    215 1HD2 ASN A  21       3.932 -11.129 -11.216  1.00  0.00     0.159 HD
ATOM    216 2HD2 ASN A  21       5.194 -10.964 -12.428  1.00  0.00     0.159 HD
ATOM    217  N   ALA A  22       5.355 -13.254 -16.522  1.00  0.00    -0.346 N 
ATOM    218  CA  ALA A  22       5.288 -12.567 -17.819  1.00  0.00     0.172 C 
ATOM    219  C   ALA A  22       5.434 -11.026 -17.810  1.00  0.00     0.240 C 
ATOM    220  O   ALA A  22       4.904 -10.339 -18.688  1.00  0.00    -0.271 OA
ATOM    221  CB  ALA A  22       4.067 -13.085 -18.599  1.00  0.00     0.042 C 
ATOM    222  H   ALA A  22       5.952 -14.068 -16.487  1.00  0.00     0.163 HD
ATOM    223  N   ASP A  23       6.173 -10.476 -16.841  1.00  0.00    -0.346 N 
ATOM    224  CA  ASP A  23       6.463  -9.037 -16.757  1.00  0.00     0.186 C 
ATOM    225  C   ASP A  23       7.530  -8.579 -17.772  1.00  0.00     0.241 C 
ATOM    226  O   ASP A  23       7.225  -7.775 -18.655  1.00  0.00    -0.271 OA
ATOM    227  CB  ASP A  23       6.843  -8.638 -15.328  1.00  0.00     0.147 C 
ATOM    228  CG  ASP A  23       5.722  -8.913 -14.316  1.00  0.00     0.175 C 
ATOM    229  OD1 ASP A  23       5.966  -9.683 -13.359  1.00  0.00    -0.648 OA
ATOM    230  OD2 ASP A  23       4.617  -8.335 -14.459  1.00  0.00    -0.648 OA
ATOM    231  H   ASP A  23       6.537 -11.089 -16.135  1.00  0.00     0.163 HD
ATOM    232  N   LEU A  24       8.755  -9.128 -17.658  1.00  0.00    -0.346 N 
ATOM    233  CA  LEU A  24       9.924  -8.930 -18.538  1.00  0.00     0.177 C 
ATOM    234  C   LEU A  24      10.358  -7.454 -18.730  1.00  0.00     0.241 C 
ATOM    235  O   LEU A  24       9.787  -6.704 -19.528  1.00  0.00    -0.271 OA
ATOM    236  CB  LEU A  24       9.744  -9.664 -19.885  1.00  0.00     0.038 C 
ATOM    237  CG  LEU A  24       9.935 -11.194 -19.830  1.00  0.00    -0.020 C 
ATOM    238  CD1 LEU A  24       8.764 -11.940 -19.181  1.00  0.00     0.009 C 
ATOM    239  CD2 LEU A  24      10.100 -11.745 -21.247  1.00  0.00     0.009 C 
ATOM    240  H   LEU A  24       8.894  -9.748 -16.877  1.00  0.00     0.163 HD
ATOM    241  N   GLU A  25      11.432  -7.062 -18.027  1.00  0.00    -0.345 N 
ATOM    242  CA  GLU A  25      12.089  -5.743 -18.144  1.00  0.00     0.186 C 
ATOM    243  C   GLU A  25      12.622  -5.440 -19.564  1.00  0.00     0.196 C 
ATOM    244  O   GLU A  25      12.370  -4.319 -20.064  1.00  0.00    -0.646 OA
ATOM    245  CB  GLU A  25      13.192  -5.624 -17.075  1.00  0.00     0.046 C 
ATOM    246  CG  GLU A  25      13.708  -4.191 -16.851  1.00  0.00     0.116 C 
ATOM    247  CD  GLU A  25      14.771  -3.690 -17.863  1.00  0.00     0.172 C 
ATOM    248  OE1 GLU A  25      15.690  -4.453 -18.258  1.00  0.00    -0.648 OA
ATOM    249  OE2 GLU A  25      14.757  -2.480 -18.213  1.00  0.00    -0.648 OA
ATOM    250  OXT GLU A  25      13.276  -6.314 -20.184  1.00  0.00    -0.646 OA
ATOM    251  H   GLU A  25      11.861  -7.723 -17.399  1.00  0.00     0.163 HD
TER     252      GLU A  25 
